created by fftool

360 atoms
350 bonds
670 angles
870 dihedrals
10 atom types
6 bond types
11 angle types
9 dihedral types
0.000000 20.000000 xlo xhi
0.000000 20.000000 ylo yhi
0.000000 20.000000 zlo zhi

Masses

   1   18.998  # FSI
   2   32.066  # SBT
   3   14.000  # NBT
   4   15.999  # OBT
   5   14.007  # N4
   6   12.011  # C1
   7   12.011  # C2
   8    1.008  # H1
   9    1.008  # HC
  10   12.011  # CT

Bond Coeffs

   1   224.545889     1.575000  # FB-SB
   2   374.880497     1.570000  # NB-SB
   3   637.069790     1.437000  # SB-OB
   4   382.002868     1.448000  # NT-CT
   5   267.925430     1.529000  # CT-CT
   6   339.985660     1.090000  # HC-CT

Angle Coeffs

   1   107.791587   103.000000  # FB-SB-NB
   2   128.704589   104.100000  # FB-SB-OB
   3    94.287763   113.600000  # NB-SB-OB
   4   115.798279   118.500000  # OB-SB-OB
   5    80.186424   125.600000  # SB-NB-SB
   6    51.804493   107.200000  # CT-NT-CT
   7    56.202199   109.500000  # NT-CT-CT
   8    35.002390   109.500000  # HC-CT-NT
   9    37.500000   110.700000  # CT-CT-HC
  10    32.994742   107.800000  # HC-CT-HC
  11    58.353250   112.700000  # CT-CT-CT

Dihedral Coeffs

   1     3.214962    -2.948685    -2.028537    -0.684847  # FB-SB-NB-SB
   2     0.000000     0.000000    -0.003585     0.000000  # OB-SB-NB-SB
   3     0.415989    -0.128011     0.695005     0.000000  # CT-NT-CT-CT
   4     0.000000     0.000000     0.559990     0.000000  # HC-CT-NT-CT
   5    -1.013002    -0.709011     0.472992     0.000000  # HC-CT-CT-NT
   6     0.000000     0.000000     0.300000     0.000000  # HC-CT-CT-HC
   7     2.391993    -0.673996     0.550000     0.000000  # CT-CT-CT-NT
   8     0.000000     0.000000     0.300000     0.000000  # CT-CT-CT-HC
   9     1.300000    -0.050000     0.200000     0.000000  # CT-CT-CT-CT

Atoms

      1       1    1  -0.1300  1.071172e+01  5.423887e+00  3.391414e+00  # FSI fsi-
      2       1    2   1.0200  1.020664e+01  3.934038e+00  3.468032e+00  # SBT fsi-
      3       1    3  -0.6600  1.143954e+01  3.180019e+00  3.869809e+00  # NBT fsi-
      4       1    4  -0.5300  9.167065e+00  3.966281e+00  4.468277e+00  # OBT fsi-
      5       1    4  -0.5300  9.736566e+00  3.653115e+00  2.132982e+00  # OBT fsi-
      6       1    2   1.0200  1.175079e+01  2.970834e+00  5.322174e+00  # SBT fsi-
      7       1    4  -0.5300  1.117009e+01  4.138498e+00  5.939907e+00  # OBT fsi-
      8       1    4  -0.5300  1.319284e+01  2.919094e+00  5.330784e+00  # OBT fsi-
      9       1    1  -0.1300  1.102802e+01  1.609675e+00  5.646940e+00  # FSI fsi-
     10       2    1  -0.1300  3.706150e+00  1.479892e+01  5.908562e+00  # FSI fsi-
     11       2    2   1.0200  5.235106e+00  1.445318e+01  5.755651e+00  # SBT fsi-
     12       2    3  -0.6600  5.358338e+00  1.410388e+01  4.302103e+00  # NBT fsi-
     13       2    4  -0.5300  5.910675e+00  1.566801e+01  6.143002e+00  # OBT fsi-
     14       2    4  -0.5300  5.437714e+00  1.334756e+01  6.660531e+00  # OBT fsi-
     15       2    2   1.0200  5.673411e+00  1.517275e+01  3.297987e+00  # SBT fsi-
     16       2    4  -0.5300  5.083574e+00  1.634751e+01  3.893192e+00  # OBT fsi-
     17       2    4  -0.5300  5.019160e+00  1.468815e+01  2.106614e+00  # OBT fsi-
     18       2    1  -0.1300  7.247680e+00  1.516198e+01  3.251231e+00  # FSI fsi-
     19       3    1  -0.1300  1.374852e+01  1.701445e+01  1.496070e+00  # FSI fsi-
     20       3    2   1.0200  1.323320e+01  1.584871e+01  2.421335e+00  # SBT fsi-
     21       3    3  -0.6600  1.227525e+01  1.654623e+01  3.340998e+00  # NBT fsi-
     22       3    4  -0.5300  1.261968e+01  1.491782e+01  1.505205e+00  # OBT fsi-
     23       3    4  -0.5300  1.442827e+01  1.535214e+01  3.059680e+00  # OBT fsi-
     24       3    2   1.0200  1.082706e+01  1.666225e+01  2.967792e+00  # SBT fsi-
     25       3    4  -0.5300  1.087533e+01  1.669666e+01  1.526011e+00  # OBT fsi-
     26       3    4  -0.5300  1.043622e+01  1.789746e+01  3.603206e+00  # OBT fsi-
     27       3    1  -0.1300  1.019595e+01  1.535915e+01  3.587683e+00  # FSI fsi-
     28       4    1  -0.1300  8.052890e+00  1.120842e+01  1.100025e+01  # FSI fsi-
     29       4    2   1.0200  6.662238e+00  1.142093e+01  1.170846e+01  # SBT fsi-
     30       4    3  -0.6600  6.195207e+00  1.273176e+01  1.114845e+01  # NBT fsi-
     31       4    4  -0.5300  5.881362e+00  1.027838e+01  1.129975e+01  # OBT fsi-
     32       4    4  -0.5300  6.984258e+00  1.144676e+01  1.311483e+01  # OBT fsi-
     33       4    2   1.0200  5.370654e+00  1.276105e+01  9.895750e+00  # SBT fsi-
     34       4    4  -0.5300  5.836472e+00  1.159484e+01  9.184955e+00  # OBT fsi-
     35       4    4  -0.5300  5.733662e+00  1.402864e+01  9.309519e+00  # OBT fsi-
     36       4    1  -0.1300  3.895557e+00  1.267086e+01  1.044034e+01  # FSI fsi-
     37       5    1  -0.1300  1.092249e+01  7.036561e+00  1.449932e+01  # FSI fsi-
     38       5    2   1.0200  1.178624e+01  5.730665e+00  1.467020e+01  # SBT fsi-
     39       5    3  -0.6600  1.079171e+01  4.634203e+00  1.442798e+01  # NBT fsi-
     40       5    4  -0.5300  1.280898e+01  5.850885e+00  1.365935e+01  # OBT fsi-
     41       5    4  -0.5300  1.227860e+01  5.809526e+00  1.602431e+01  # OBT fsi-
     42       5    2   1.0200  1.057867e+01  4.108136e+00  1.303950e+01  # SBT fsi-
     43       5    4  -0.5300  1.086357e+01  5.260535e+00  1.221910e+01  # OBT fsi-
     44       5    4  -0.5300  9.196174e+00  3.695637e+00  1.306784e+01  # OBT fsi-
     45       5    1  -0.1300  1.162701e+01  2.936967e+00  1.293963e+01  # FSI fsi-
     46       6    1  -0.1300  1.632477e+01  1.461862e+01  1.177476e+01  # FSI fsi-
     47       6    2   1.0200  1.685037e+01  1.313962e+01  1.164466e+01  # SBT fsi-
     48       6    3  -0.6600  1.558820e+01  1.232950e+01  1.167030e+01  # NBT fsi-
     49       6    4  -0.5300  1.755043e+01  1.312503e+01  1.038293e+01  # OBT fsi-
     50       6    4  -0.5300  1.770135e+01  1.296630e+01  1.279706e+01  # OBT fsi-
     51       6    2   1.0200  1.487625e+01  1.200950e+01  1.038939e+01  # SBT fsi-
     52       6    4  -0.5300  1.519965e+01  1.314351e+01  9.557715e+00  # OBT fsi-
     53       6    4  -0.5300  1.349815e+01  1.192280e+01  1.080841e+01  # OBT fsi-
     54       6    1  -0.1300  1.553180e+01  1.064627e+01  9.950685e+00  # FSI fsi-
     55       7    1  -0.1300  2.781130e+00  3.436623e+00  7.765522e+00  # FSI fsi-
     56       7    2   1.0200  2.311622e+00  2.502331e+00  6.587691e+00  # SBT fsi-
     57       7    3  -0.6600  1.552902e+00  3.439533e+00  5.695505e+00  # NBT fsi-
     58       7    4  -0.5300  3.542027e+00  1.999221e+00  6.026234e+00  # OBT fsi-
     59       7    4  -0.5300  1.501834e+00  1.499282e+00  7.236063e+00  # OBT fsi-
     60       7    2   1.0200  2.266873e+00  4.176050e+00  4.601070e+00  # SBT fsi-
     61       7    4  -0.5300  3.597358e+00  4.326709e+00  5.138991e+00  # OBT fsi-
     62       7    4  -0.5300  1.502439e+00  5.394995e+00  4.491258e+00  # OBT fsi-
     63       7    1  -0.1300  2.145214e+00  3.194355e+00  3.375468e+00  # FSI fsi-
     64       8    1  -0.1300  1.529471e+00  1.263496e+01  6.879601e+00  # FSI fsi-
     65       8    2   1.0200  2.109148e+00  1.119499e+01  6.612995e+00  # SBT fsi-
     66       8    3  -0.6600  1.635369e+00  1.089269e+01  5.222260e+00  # NBT fsi-
     67       8    4  -0.5300  3.536813e+00  1.136160e+01  6.740525e+00  # OBT fsi-
     68       8    4  -0.5300  1.512840e+00  1.037965e+01  7.643473e+00  # OBT fsi-
     69       8    2   1.0200  2.483118e+00  1.126776e+01  4.043005e+00  # SBT fsi-
     70       8    4  -0.5300  3.186454e+00  1.243428e+01  4.519246e+00  # OBT fsi-
     71       8    4  -0.5300  1.500962e+00  1.151453e+01  3.015034e+00  # OBT fsi-
     72       8    1  -0.1300  3.374939e+00  9.987785e+00  3.826351e+00  # FSI fsi-
     73       9    1  -0.1300  1.167456e+01  1.710803e+01  1.286241e+01  # FSI fsi-
     74       9    2   1.0200  1.102583e+01  1.768718e+01  1.417555e+01  # SBT fsi-
     75       9    3  -0.6600  9.860283e+00  1.847595e+01  1.365657e+01  # NBT fsi-
     76       9    4  -0.5300  1.066892e+01  1.651507e+01  1.493781e+01  # OBT fsi-
     77       9    4  -0.5300  1.207614e+01  1.848133e+01  1.476582e+01  # OBT fsi-
     78       9    2   1.0200  8.523385e+00  1.781662e+01  1.348925e+01  # SBT fsi-
     79       9    4  -0.5300  8.880863e+00  1.644800e+01  1.320408e+01  # OBT fsi-
     80       9    4  -0.5300  7.947480e+00  1.854803e+01  1.238670e+01  # OBT fsi-
     81       9    1  -0.1300  7.834179e+00  1.805373e+01  1.488546e+01  # FSI fsi-
     82      10    1  -0.1300  5.508993e+00  1.796038e+01  1.123934e+01  # FSI fsi-
     83      10    2   1.0200  4.688357e+00  1.777538e+01  1.257086e+01  # SBT fsi-
     84      10    3  -0.6600  3.364499e+00  1.839857e+01  1.224066e+01  # NBT fsi-
     85      10    4  -0.5300  4.650111e+00  1.634594e+01  1.276450e+01  # OBT fsi-
     86      10    4  -0.5300  5.459596e+00  1.848753e+01  1.356095e+01  # OBT fsi-
     87      10    2   1.0200  2.268771e+00  1.756250e+01  1.164875e+01  # SBT fsi-
     88      10    4  -0.5300  3.000410e+00  1.656192e+01  1.090997e+01  # OBT fsi-
     89      10    4  -0.5300  1.543357e+00  1.851701e+01  1.084567e+01  # OBT fsi-
     90      10    1  -0.1300  1.502019e+00  1.703282e+01  1.291846e+01  # FSI fsi-
     91      11    5   0.1200  1.332206e+01  7.916175e+00  7.272056e+00  # N4 c3c1pyrr+
     92      11    6  -0.1700  1.339222e+01  7.727248e+00  8.729186e+00  # C1 c3c1pyrr+
     93      11    6  -0.1700  1.367830e+01  6.659125e+00  6.596215e+00  # C1 c3c1pyrr+
     94      11    7   0.0100  1.381118e+01  6.289530e+00  9.037853e+00  # C2 c3c1pyrr+
     95      11    7   0.0100  1.399843e+01  5.590435e+00  7.641806e+00  # C2 c3c1pyrr+
     96      11    6  -0.1700  1.195527e+01  8.305782e+00  6.892672e+00  # C1 c3c1pyrr+
     97      11    6  -0.1700  1.426236e+01  8.972815e+00  6.868083e+00  # C1 c3c1pyrr+
     98      11    8   0.1300  1.241414e+01  7.922481e+00  9.168901e+00  # H1 c3c1pyrr+
     99      11    8   0.1300  1.412368e+01  8.416748e+00  9.150681e+00  # H1 c3c1pyrr+
    100      11    8   0.1300  1.284183e+01  6.326852e+00  5.981392e+00  # H1 c3c1pyrr+
    101      11    8   0.1300  1.455076e+01  6.820943e+00  5.963178e+00  # H1 c3c1pyrr+
    102      11    9   0.0600  1.304512e+01  5.782487e+00  9.624496e+00  # HC c3c1pyrr+
    103      11    9   0.0600  1.474100e+01  6.272806e+00  9.606421e+00  # HC c3c1pyrr+
    104      11    9   0.0600  1.332464e+01  4.739497e+00  7.541781e+00  # HC c3c1pyrr+
    105      11    9   0.0600  1.502021e+01  5.229728e+00  7.523709e+00  # HC c3c1pyrr+
    106      11    8   0.1300  1.169055e+01  9.237550e+00  7.392498e+00  # H1 c3c1pyrr+
    107      11    8   0.1300  1.190329e+01  8.445775e+00  5.812950e+00  # H1 c3c1pyrr+
    108      11    8   0.1300  1.125776e+01  7.523124e+00  7.191047e+00  # H1 c3c1pyrr+
    109      11    8   0.1300  1.420992e+01  9.113242e+00  5.788439e+00  # H1 c3c1pyrr+
    110      11    8   0.1300  1.399923e+01  9.904783e+00  7.368379e+00  # H1 c3c1pyrr+
    111      11    7   0.0100  1.568379e+01  8.568372e+00  7.260266e+00  # C2 c3c1pyrr+
    112      11    9   0.0600  1.594814e+01  7.636756e+00  6.759955e+00  # HC c3c1pyrr+
    113      11    9   0.0600  1.573744e+01  8.428296e+00  8.339895e+00  # HC c3c1pyrr+
    114      11   10  -0.1800  1.666116e+01  9.666673e+00  6.840363e+00  # CT c3c1pyrr+
    115      11    9   0.0600  1.639803e+01  1.059864e+01  7.340659e+00  # HC c3c1pyrr+
    116      11    9   0.0600  1.660872e+01  9.807100e+00  5.760719e+00  # HC c3c1pyrr+
    117      11    9   0.0600  1.767448e+01  9.378353e+00  7.119944e+00  # HC c3c1pyrr+
    118      12    5   0.1200  1.028870e+01  1.460111e+01  9.235778e+00  # N4 c3c1pyrr+
    119      12    6  -0.1700  1.112954e+01  1.386678e+01  8.277866e+00  # C1 c3c1pyrr+
    120      12    6  -0.1700  8.893619e+00  1.415208e+01  9.109461e+00  # C1 c3c1pyrr+
    121      12    7   0.0100  1.026294e+01  1.289047e+01  7.481838e+00  # C2 c3c1pyrr+
    122      12    7   0.0100  8.799509e+00  1.307720e+01  8.026124e+00  # C2 c3c1pyrr+
    123      12    6  -0.1700  1.076385e+01  1.434401e+01  1.060398e+01  # C1 c3c1pyrr+
    124      12    6  -0.1700  1.036661e+01  1.604260e+01  8.953165e+00  # C1 c3c1pyrr+
    125      12    8   0.1300  1.189758e+01  1.331300e+01  8.817819e+00  # H1 c3c1pyrr+
    126      12    8   0.1300  1.160323e+01  1.457164e+01  7.594577e+00  # H1 c3c1pyrr+
    127      12    8   0.1300  8.556533e+00  1.373986e+01  1.006054e+01  # H1 c3c1pyrr+
    128      12    8   0.1300  8.262283e+00  1.499805e+01  8.837733e+00  # H1 c3c1pyrr+
    129      12    9   0.0600  1.060248e+01  1.186528e+01  7.629508e+00  # HC c3c1pyrr+
    130      12    9   0.0600  1.031048e+01  1.311387e+01  6.416037e+00  # HC c3c1pyrr+
    131      12    9   0.0600  8.419155e+00  1.214392e+01  8.441367e+00  # HC c3c1pyrr+
    132      12    9   0.0600  8.127203e+00  1.339229e+01  7.228112e+00  # HC c3c1pyrr+
    133      12    8   0.1300  1.179740e+01  1.467699e+01  1.069881e+01  # H1 c3c1pyrr+
    134      12    8   0.1300  1.014080e+01  1.488814e+01  1.131379e+01  # H1 c3c1pyrr+
    135      12    8   0.1300  1.070593e+01  1.327613e+01  1.081462e+01  # H1 c3c1pyrr+
    136      12    8   0.1300  9.744044e+00  1.658678e+01  9.663364e+00  # H1 c3c1pyrr+
    137      12    8   0.1300  1.140005e+01  1.637635e+01  9.046509e+00  # H1 c3c1pyrr+
    138      12    7   0.0100  9.871337e+00  1.631154e+01  7.531821e+00  # C2 c3c1pyrr+
    139      12    9   0.0600  8.837686e+00  1.597869e+01  7.437609e+00  # HC c3c1pyrr+
    140      12    9   0.0600  1.049369e+01  1.576825e+01  6.820754e+00  # HC c3c1pyrr+
    141      12   10  -0.1800  9.952312e+00  1.780987e+01  7.238065e+00  # CT c3c1pyrr+
    142      12    9   0.0600  1.098575e+01  1.814362e+01  7.331409e+00  # HC c3c1pyrr+
    143      12    9   0.0600  9.329750e+00  1.835405e+01  7.948264e+00  # HC c3c1pyrr+
    144      12    9   0.0600  9.599243e+00  1.800159e+01  6.224811e+00  # HC c3c1pyrr+
    145      13    5   0.1200  3.341554e+00  1.281688e+01  1.490362e+01  # N4 c3c1pyrr+
    146      13    6  -0.1700  4.577611e+00  1.334414e+01  1.550196e+01  # C1 c3c1pyrr+
    147      13    6  -0.1700  2.211834e+00  1.368788e+01  1.526271e+01  # C1 c3c1pyrr+
    148      13    7   0.0100  4.261095e+00  1.461535e+01  1.629041e+01  # C2 c3c1pyrr+
    149      13    7   0.0100  2.712674e+00  1.484033e+01  1.613383e+01  # C2 c3c1pyrr+
    150      13    6  -0.1700  3.482855e+00  1.277665e+01  1.343998e+01  # C1 c3c1pyrr+
    151      13    6  -0.1700  3.092158e+00  1.145811e+01  1.540899e+01  # C1 c3c1pyrr+
    152      13    8   0.1300  5.293788e+00  1.357516e+01  1.471340e+01  # H1 c3c1pyrr+
    153      13    8   0.1300  5.004285e+00  1.259813e+01  1.617242e+01  # H1 c3c1pyrr+
    154      13    8   0.1300  1.758524e+00  1.408826e+01  1.435591e+01  # H1 c3c1pyrr+
    155      13    8   0.1300  1.469124e+00  1.311159e+01  1.581441e+01  # H1 c3c1pyrr+
    156      13    9   0.0600  4.817287e+00  1.546410e+01  1.589244e+01  # HC c3c1pyrr+
    157      13    9   0.0600  4.530096e+00  1.449488e+01  1.733981e+01  # HC c3c1pyrr+
    158      13    9   0.0600  2.507194e+00  1.579972e+01  1.565900e+01  # HC c3c1pyrr+
    159      13    9   0.0600  2.220055e+00  1.483067e+01  1.710611e+01  # HC c3c1pyrr+
    160      13    8   0.1300  4.319392e+00  1.213095e+01  1.317281e+01  # H1 c3c1pyrr+
    161      13    8   0.1300  2.566945e+00  1.238596e+01  1.299662e+01  # H1 c3c1pyrr+
    162      13    8   0.1300  3.667079e+00  1.378319e+01  1.306442e+01  # H1 c3c1pyrr+
    163      13    8   0.1300  2.176583e+00  1.106718e+01  1.496515e+01  # H1 c3c1pyrr+
    164      13    8   0.1300  3.928778e+00  1.081187e+01  1.514340e+01  # H1 c3c1pyrr+
    165      13    7   0.0100  2.943317e+00  1.149867e+01  1.693019e+01  # C2 c3c1pyrr+
    166      13    9   0.0600  2.106491e+00  1.214421e+01  1.719681e+01  # HC c3c1pyrr+
    167      13    9   0.0600  3.858684e+00  1.188890e+01  1.737506e+01  # HC c3c1pyrr+
    168      13   10  -0.1800  2.684088e+00  1.008633e+01  1.745548e+01  # CT c3c1pyrr+
    169      13    9   0.0600  3.520707e+00  9.440082e+00  1.718989e+01  # HC c3c1pyrr+
    170      13    9   0.0600  1.768512e+00  9.695393e+00  1.701164e+01  # HC c3c1pyrr+
    171      13    9   0.0600  2.577981e+00  1.011523e+01  1.853992e+01  # HC c3c1pyrr+
    172      14    5   0.1200  4.657926e+00  6.155186e+00  1.449065e+01  # N4 c3c1pyrr+
    173      14    6  -0.1700  5.223506e+00  7.372190e+00  1.509303e+01  # C1 c3c1pyrr+
    174      14    6  -0.1700  5.734942e+00  5.367894e+00  1.387093e+01  # C1 c3c1pyrr+
    175      14    7   0.0100  6.735464e+00  7.398380e+00  1.486689e+01  # C2 c3c1pyrr+
    176      14    7   0.0100  7.070203e+00  6.086552e+00  1.406702e+01  # C2 c3c1pyrr+
    177      14    6  -0.1700  4.001043e+00  5.351161e+00  1.553271e+01  # C1 c3c1pyrr+
    178      14    6  -0.1700  3.671411e+00  6.527769e+00  1.346507e+01  # C1 c3c1pyrr+
    179      14    8   0.1300  5.016550e+00  7.378461e+00  1.616318e+01  # H1 c3c1pyrr+
    180      14    8   0.1300  4.772296e+00  8.250319e+00  1.463108e+01  # H1 c3c1pyrr+
    181      14    8   0.1300  5.780315e+00  4.383480e+00  1.433673e+01  # H1 c3c1pyrr+
    182      14    8   0.1300  5.536147e+00  5.255029e+00  1.280517e+01  # H1 c3c1pyrr+
    183      14    9   0.0600  7.267062e+00  7.417366e+00  1.581828e+01  # HC c3c1pyrr+
    184      14    9   0.0600  7.024758e+00  8.282260e+00  1.429842e+01  # HC c3c1pyrr+
    185      14    9   0.0600  7.766505e+00  5.460360e+00  1.462482e+01  # HC c3c1pyrr+
    186      14    9   0.0600  7.524245e+00  6.325100e+00  1.310523e+01  # HC c3c1pyrr+
    187      14    8   0.1300  3.202339e+00  5.933474e+00  1.599215e+01  # H1 c3c1pyrr+
    188      14    8   0.1300  3.581952e+00  4.449370e+00  1.508635e+01  # H1 c3c1pyrr+
    189      14    8   0.1300  4.731400e+00  5.074015e+00  1.629289e+01  # H1 c3c1pyrr+
    190      14    8   0.1300  3.251865e+00  5.625974e+00  1.301915e+01  # H1 c3c1pyrr+
    191      14    8   0.1300  2.872855e+00  7.111234e+00  1.392331e+01  # H1 c3c1pyrr+
    192      14    7   0.0100  4.353238e+00  7.362134e+00  1.238027e+01  # C2 c3c1pyrr+
    193      14    9   0.0600  5.151620e+00  6.779288e+00  1.192095e+01  # HC c3c1pyrr+
    194      14    9   0.0600  4.772611e+00  8.264547e+00  1.282511e+01  # HC c3c1pyrr+
    195      14   10  -0.1800  3.327826e+00  7.749408e+00  1.131426e+01  # CT c3c1pyrr+
    196      14    9   0.0600  2.529269e+00  8.332872e+00  1.177249e+01  # HC c3c1pyrr+
    197      14    9   0.0600  2.908280e+00  6.847613e+00  1.086834e+01  # HC c3c1pyrr+
    198      14    9   0.0600  3.813889e+00  8.344213e+00  1.054092e+01  # HC c3c1pyrr+
    199      15    5   0.1200  8.076104e+00  3.407399e+00  9.064208e+00  # N4 c3c1pyrr+
    200      15    6  -0.1700  7.585512e+00  3.318649e+00  7.680270e+00  # C1 c3c1pyrr+
    201      15    6  -0.1700  7.015205e+00  2.980730e+00  9.989568e+00  # C1 c3c1pyrr+
    202      15    7   0.0100  6.142344e+00  2.813570e+00  7.681749e+00  # C2 c3c1pyrr+
    203      15    7   0.0100  5.769074e+00  2.592399e+00  9.193203e+00  # C2 c3c1pyrr+
    204      15    6  -0.1700  9.248184e+00  2.533516e+00  9.226680e+00  # C1 c3c1pyrr+
    205      15    6  -0.1700  8.456211e+00  4.796828e+00  9.362282e+00  # C1 c3c1pyrr+
    206      15    8   0.1300  8.211322e+00  2.627204e+00  7.116031e+00  # H1 c3c1pyrr+
    207      15    8   0.1300  7.624475e+00  4.304301e+00  7.216511e+00  # H1 c3c1pyrr+
    208      15    8   0.1300  7.359414e+00  2.122685e+00  1.056696e+01  # H1 c3c1pyrr+
    209      15    8   0.1300  6.772776e+00  3.799186e+00  1.066740e+01  # H1 c3c1pyrr+
    210      15    9   0.0600  6.059781e+00  1.881482e+00  7.122737e+00  # HC c3c1pyrr+
    211      15    9   0.0600  5.477622e+00  3.545182e+00  7.222415e+00  # HC c3c1pyrr+
    212      15    9   0.0600  5.502783e+00  1.551645e+00  9.377648e+00  # HC c3c1pyrr+
    213      15    9   0.0600  4.920728e+00  3.215050e+00  9.477308e+00  # HC c3c1pyrr+
    214      15    8   0.1300  1.003518e+01  2.849261e+00  8.541809e+00  # H1 c3c1pyrr+
    215      15    8   0.1300  9.611709e+00  2.599279e+00  1.025217e+01  # H1 c3c1pyrr+
    216      15    8   0.1300  8.967403e+00  1.503547e+00  9.006623e+00  # H1 c3c1pyrr+
    217      15    8   0.1300  8.820322e+00  4.862474e+00  1.038757e+01  # H1 c3c1pyrr+
    218      15    8   0.1300  9.242349e+00  5.113971e+00  8.677076e+00  # H1 c3c1pyrr+
    219      15    7   0.0100  7.238349e+00  5.706134e+00  9.195498e+00  # C2 c3c1pyrr+
    220      15    9   0.0600  6.451793e+00  5.390183e+00  9.880776e+00  # HC c3c1pyrr+
    221      15    9   0.0600  6.873820e+00  5.641680e+00  8.170285e+00  # HC c3c1pyrr+
    222      15   10  -0.1800  7.633442e+00  7.150346e+00  9.505325e+00  # CT c3c1pyrr+
    223      15    9   0.0600  8.419581e+00  7.467489e+00  8.820120e+00  # HC c3c1pyrr+
    224      15    9   0.0600  7.997554e+00  7.215992e+00  1.053061e+01  # HC c3c1pyrr+
    225      15    9   0.0600  6.765248e+00  7.798576e+00  9.386427e+00  # HC c3c1pyrr+
    226      16    5   0.1200  9.366054e+00  1.222525e+01  1.636829e+01  # N4 c3c1pyrr+
    227      16    6  -0.1700  1.010403e+01  1.120173e+01  1.561221e+01  # C1 c3c1pyrr+
    228      16    6  -0.1700  1.010829e+01  1.256142e+01  1.759301e+01  # C1 c3c1pyrr+
    229      16    7   0.0100  1.138764e+01  1.084090e+01  1.636055e+01  # C2 c3c1pyrr+
    230      16    7   0.0100  1.139042e+01  1.173083e+01  1.765699e+01  # C2 c3c1pyrr+
    231      16    6  -0.1700  9.213770e+00  1.343214e+01  1.554121e+01  # C1 c3c1pyrr+
    232      16    6  -0.1700  8.037083e+00  1.170716e+01  1.672782e+01  # C1 c3c1pyrr+
    233      16    8   0.1300  1.035626e+01  1.158970e+01  1.462532e+01  # H1 c3c1pyrr+
    234      16    8   0.1300  9.484347e+00  1.031151e+01  1.550459e+01  # H1 c3c1pyrr+
    235      16    8   0.1300  1.036208e+01  1.362143e+01  1.758526e+01  # H1 c3c1pyrr+
    236      16    8   0.1300  9.490470e+00  1.234368e+01  1.846421e+01  # H1 c3c1pyrr+
    237      16    9   0.0600  1.226346e+01  1.104991e+01  1.574626e+01  # HC c3c1pyrr+
    238      16    9   0.0600  1.139851e+01  9.781925e+00  1.661850e+01  # HC c3c1pyrr+
    239      16    9   0.0600  1.226760e+01  1.237743e+01  1.768051e+01  # HC c3c1pyrr+
    240      16    9   0.0600  1.140280e+01  1.110967e+01  1.855260e+01  # HC c3c1pyrr+
    241      16    8   0.1300  8.663315e+00  1.318421e+01  1.463367e+01  # H1 c3c1pyrr+
    242      16    8   0.1300  8.666935e+00  1.419055e+01  1.610146e+01  # H1 c3c1pyrr+
    243      16    8   0.1300  1.019806e+01  1.381721e+01  1.527477e+01  # H1 c3c1pyrr+
    244      16    8   0.1300  7.490013e+00  1.246580e+01  1.728753e+01  # H1 c3c1pyrr+
    245      16    8   0.1300  7.486242e+00  1.145774e+01  1.582092e+01  # H1 c3c1pyrr+
    246      16    7   0.0100  8.193847e+00  1.045355e+01  1.758907e+01  # C2 c3c1pyrr+
    247      16    9   0.0600  8.744068e+00  1.070206e+01  1.849659e+01  # HC c3c1pyrr+
    248      16    9   0.0600  8.740297e+00  9.694004e+00  1.702998e+01  # HC c3c1pyrr+
    249      16   10  -0.1800  6.812476e+00  9.915035e+00  1.796277e+01  # CT c3c1pyrr+
    250      16    9   0.0600  6.261634e+00  9.665616e+00  1.705587e+01  # HC c3c1pyrr+
    251      16    9   0.0600  6.265406e+00  1.067368e+01  1.852248e+01  # HC c3c1pyrr+
    252      16    9   0.0600  6.924230e+00  9.021362e+00  1.857674e+01  # HC c3c1pyrr+
    253      17    5   0.1200  1.651532e+01  1.625086e+01  6.646375e+00  # N4 c3c1pyrr+
    254      17    6  -0.1700  1.621470e+01  1.747959e+01  5.895584e+00  # C1 c3c1pyrr+
    255      17    6  -0.1700  1.526334e+01  1.553759e+01  6.942412e+00  # C1 c3c1pyrr+
    256      17    7   0.0100  1.470474e+01  1.759086e+01  5.682291e+00  # C2 c3c1pyrr+
    257      17    7   0.0100  1.408207e+01  1.631980e+01  6.367448e+00  # C2 c3c1pyrr+
    258      17    6  -0.1700  1.739296e+01  1.538646e+01  5.842374e+00  # C1 c3c1pyrr+
    259      17    6  -0.1700  1.719071e+01  1.659804e+01  7.906198e+00  # C1 c3c1pyrr+
    260      17    8   0.1300  1.671631e+01  1.744693e+01  4.928411e+00  # H1 c3c1pyrr+
    261      17    8   0.1300  1.656644e+01  1.834470e+01  6.457689e+00  # H1 c3c1pyrr+
    262      17    8   0.1300  1.529507e+01  1.454502e+01  6.493079e+00  # H1 c3c1pyrr+
    263      17    8   0.1300  1.514526e+01  1.544247e+01  8.021814e+00  # H1 c3c1pyrr+
    264      17    9   0.0600  1.446642e+01  1.761269e+01  4.618888e+00  # HC c3c1pyrr+
    265      17    9   0.0600  1.431775e+01  1.850329e+01  6.135950e+00  # HC c3c1pyrr+
    266      17    9   0.0600  1.353738e+01  1.571652e+01  5.641182e+00  # HC c3c1pyrr+
    267      17    9   0.0600  1.338874e+01  1.660696e+01  7.157975e+00  # HC c3c1pyrr+
    268      17    8   0.1300  1.832128e+01  1.591389e+01  5.622985e+00  # H1 c3c1pyrr+
    269      17    8   0.1300  1.761572e+01  1.447598e+01  6.398705e+00  # H1 c3c1pyrr+
    270      17    8   0.1300  1.689312e+01  1.512810e+01  4.908827e+00  # H1 c3c1pyrr+
    271      17    8   0.1300  1.741403e+01  1.568752e+01  8.462240e+00  # H1 c3c1pyrr+
    272      17    8   0.1300  1.811862e+01  1.712665e+01  7.687910e+00  # H1 c3c1pyrr+
    273      17    7   0.0100  1.627884e+01  1.749515e+01  8.743771e+00  # C2 c3c1pyrr+
    274      17    9   0.0600  1.535082e+01  1.696717e+01  8.963146e+00  # HC c3c1pyrr+
    275      17    9   0.0600  1.605541e+01  1.840630e+01  8.188817e+00  # HC c3c1pyrr+
    276      17   10  -0.1800  1.698086e+01  1.785602e+01  1.005327e+01  # CT c3c1pyrr+
    277      17    9   0.0600  1.790877e+01  1.838463e+01  9.834979e+00  # HC c3c1pyrr+
    278      17    9   0.0600  1.720417e+01  1.694550e+01  1.060931e+01  # HC c3c1pyrr+
    279      17    9   0.0600  1.633080e+01  1.849555e+01  1.065036e+01  # HC c3c1pyrr+
    280      18    5   0.1200  1.676233e+01  8.018941e+00  1.518881e+01  # N4 c3c1pyrr+
    281      18    6  -0.1700  1.762638e+01  8.753146e+00  1.425168e+01  # C1 c3c1pyrr+
    282      18    6  -0.1700  1.544121e+01  7.808933e+00  1.457694e+01  # C1 c3c1pyrr+
    283      18    7   0.0100  1.685277e+01  9.044349e+00  1.296538e+01  # C2 c3c1pyrr+
    284      18    7   0.0100  1.542256e+01  8.426353e+00  1.317826e+01  # C2 c3c1pyrr+
    285      18    6  -0.1700  1.737060e+01  6.716186e+00  1.549974e+01  # C1 c3c1pyrr+
    286      18    6  -0.1700  1.660991e+01  8.796457e+00  1.642819e+01  # C1 c3c1pyrr+
    287      18    8   0.1300  1.850455e+01  8.151022e+00  1.401849e+01  # H1 c3c1pyrr+
    288      18    8   0.1300  1.794088e+01  9.692488e+00  1.470646e+01  # H1 c3c1pyrr+
    289      18    8   0.1300  1.523926e+01  6.740219e+00  1.450505e+01  # H1 c3c1pyrr+
    290      18    8   0.1300  1.467580e+01  8.281137e+00  1.519278e+01  # H1 c3c1pyrr+
    291      18    9   0.0600  1.734687e+01  8.588962e+00  1.210714e+01  # HC c3c1pyrr+
    292      18    9   0.0600  1.678771e+01  1.011811e+01  1.278961e+01  # HC c3c1pyrr+
    293      18    9   0.0600  1.521309e+01  7.667140e+00  1.242473e+01  # HC c3c1pyrr+
    294      18    9   0.0600  1.465403e+01  9.196020e+00  1.310708e+01  # HC c3c1pyrr+
    295      18    8   0.1300  1.834940e+01  6.870729e+00  1.595379e+01  # H1 c3c1pyrr+
    296      18    8   0.1300  1.673034e+01  6.172146e+00  1.619415e+01  # H1 c3c1pyrr+
    297      18    8   0.1300  1.748341e+01  6.138980e+00  1.458202e+01  # H1 c3c1pyrr+
    298      18    8   0.1300  1.597016e+01  8.252130e+00  1.712283e+01  # H1 c3c1pyrr+
    299      18    8   0.1300  1.758838e+01  8.952631e+00  1.688240e+01  # H1 c3c1pyrr+
    300      18    7   0.0100  1.597610e+01  1.015026e+01  1.610672e+01  # C2 c3c1pyrr+
    301      18    9   0.0600  1.499723e+01  9.995184e+00  1.565300e+01  # HC c3c1pyrr+
    302      18    9   0.0600  1.661545e+01  1.069568e+01  1.541256e+01  # HC c3c1pyrr+
    303      18   10  -0.1800  1.581767e+01  1.095843e+01  1.739497e+01  # CT c3c1pyrr+
    304      18    9   0.0600  1.679614e+01  1.111461e+01  1.784918e+01  # HC c3c1pyrr+
    305      18    9   0.0600  1.517792e+01  1.041411e+01  1.808961e+01  # HC c3c1pyrr+
    306      18    9   0.0600  1.536584e+01  1.192354e+01  1.716580e+01  # HC c3c1pyrr+
    307      19    5   0.1200  6.577895e+00  8.421427e+00  4.691054e+00  # N4 c3c1pyrr+
    308      19    6  -0.1700  6.490068e+00  9.495219e+00  3.689506e+00  # C1 c3c1pyrr+
    309      19    6  -0.1700  7.979337e+00  7.998591e+00  4.836012e+00  # C1 c3c1pyrr+
    310      19    7   0.0100  7.885821e+00  9.800856e+00  3.145169e+00  # C2 c3c1pyrr+
    311      19    7   0.0100  8.860559e+00  8.821301e+00  3.895567e+00  # C2 c3c1pyrr+
    312      19    6  -0.1700  6.078833e+00  8.914041e+00  5.984154e+00  # C1 c3c1pyrr+
    313      19    6  -0.1700  5.763467e+00  7.276330e+00  4.255964e+00  # C1 c3c1pyrr+
    314      19    8   0.1300  6.076819e+00  1.039144e+01  4.152222e+00  # H1 c3c1pyrr+
    315      19    8   0.1300  5.843135e+00  9.177913e+00  2.871647e+00  # H1 c3c1pyrr+
    316      19    8   0.1300  8.301849e+00  8.154644e+00  5.865445e+00  # H1 c3c1pyrr+
    317      19    8   0.1300  8.068248e+00  6.941543e+00  4.585325e+00  # H1 c3c1pyrr+
    318      19    9   0.0600  8.156136e+00  1.083888e+01  3.338889e+00  # HC c3c1pyrr+
    319      19    9   0.0600  7.924319e+00  9.635047e+00  2.068543e+00  # HC c3c1pyrr+
    320      19    9   0.0600  9.610374e+00  9.377417e+00  4.458249e+00  # HC c3c1pyrr+
    321      19    9   0.0600  9.378599e+00  8.173794e+00  3.188129e+00  # HC c3c1pyrr+
    322      19    8   0.1300  5.040159e+00  9.227053e+00  5.877949e+00  # H1 c3c1pyrr+
    323      19    8   0.1300  6.143912e+00  8.118369e+00  6.726293e+00  # H1 c3c1pyrr+
    324      19    8   0.1300  6.682101e+00  9.762243e+00  6.307760e+00  # H1 c3c1pyrr+