LAMMPS data file via write_data, version 17 Nov 2016, timestep = 10000

360 atoms
10 atom types
350 bonds
6 bond types
670 angles
11 angle types
870 dihedrals
9 dihedral types

2.2040700179329917e+00 1.7795929982066934e+01 xlo xhi
2.2040700179329917e+00 1.7795929982066934e+01 ylo yhi
2.2040700179329917e+00 1.7795929982066934e+01 zlo zhi

Masses

1 18.998
2 32.066
3 14
4 15.999
5 14.007
6 12.011
7 12.011
8 1.008
9 1.008
10 12.011

Bond Coeffs # harmonic

1 224.546 1.575
2 374.88 1.57
3 637.07 1.437
4 382.003 1.448
5 267.925 1.529
6 339.986 1.09

Angle Coeffs # harmonic

1 107.792 103
2 128.705 104.1
3 94.2878 113.6
4 115.798 118.5
5 80.1864 125.6
6 51.8045 107.2
7 56.2022 109.5
8 35.0024 109.5
9 37.5 110.7
10 32.9947 107.8
11 58.3533 112.7

Dihedral Coeffs # opls

1 3.21496 -2.94868 -2.02854 -0.684847
2 0 0 -0.003585 0
3 0.415989 -0.128011 0.695005 0
4 0 0 0.55999 0
5 -1.013 -0.709011 0.472992 0
6 0 0 0.3 0
7 2.39199 -0.673996 0.55 0
8 0 0 0.3 0
9 1.3 -0.05 0.2 0

Atoms # full

60 7 2 1.0200000000000000e+00 3.4169597575922159e+00 6.2588424160965754e+00 7.9442326448105938e+00 0 0 0
61 7 4 -5.3000000000000003e-01 4.7057873425478238e+00 5.7401383851838608e+00 8.0170013746076556e+00 0 0 0
62 7 4 -5.3000000000000003e-01 3.3213334821289582e+00 7.6589546794873176e+00 7.9258737451067818e+00 0 0 0
199 15 5 1.2000000000000000e-01 8.9450211315772741e+00 4.2453239235420828e+00 8.9260212187418659e+00 0 0 0
200 15 6 -1.7000000000000001e-01 8.1745509212204155e+00 4.2914606106616606e+00 7.6793831239497665e+00 0 0 0
207 15 8 1.3000000000000000e-01 7.8363673229040955e+00 5.3015205699454100e+00 7.4486951379749211e+00 0 0 0
219 15 7 1.0000000000000000e-02 9.4779296138945348e+00 6.6498486092223068e+00 9.6892342586467954e+00 0 0 0
221 15 9 5.9999999999999998e-02 8.7724469447286886e+00 7.1857928703738949e+00 9.0545184512984243e+00 0 0 0
307 19 5 1.2000000000000000e-01 6.8391731415572590e+00 8.9891890630628648e+00 5.4829567871638289e+00 0 0 0
313 19 6 -1.7000000000000001e-01 6.2361882853979802e+00 7.7125918272804004e+00 5.1857925280363952e+00 0 0 0
315 19 8 1.3000000000000000e-01 7.7614047692958072e+00 9.2191501912300087e+00 3.6960549675409489e+00 0 0 0
317 19 8 1.3000000000000000e-01 8.8520045550458484e+00 8.2052045239944551e+00 5.4976521852701268e+00 0 0 0
325 19 8 1.3000000000000000e-01 6.0895645911316834e+00 7.2452813624867201e+00 6.1594087975257734e+00 0 0 0
326 19 8 1.3000000000000000e-01 5.2804308243046290e+00 7.9947164906565895e+00 4.7444994742378173e+00 0 0 0
327 19 7 1.0000000000000000e-02 6.9058540994205231e+00 6.6913648132744346e+00 4.3061017302242472e+00 0 0 0
328 19 9 5.9999999999999998e-02 7.9298714127285441e+00 6.5017764316948421e+00 4.6274286820534956e+00 0 0 0
329 19 9 5.9999999999999998e-02 6.8894759597588129e+00 7.0563934600022522e+00 3.2793144739242921e+00 0 0 0
330 19 10 -1.7999999999999999e-01 6.1194921708839241e+00 5.3701823955342789e+00 4.5175055619261038e+00 0 0 0
331 19 9 5.9999999999999998e-02 5.1135705344989208e+00 5.5518470357269427e+00 4.1394502344983852e+00 0 0 0
332 19 9 5.9999999999999998e-02 6.1737593600178124e+00 5.0271032153516657e+00 5.5505389248716774e+00 0 0 0
333 19 9 5.9999999999999998e-02 6.4820255797173765e+00 4.5554859123826024e+00 3.8908913828836464e+00 0 0 0
66 8 3 -6.6000000000000003e-01 2.5061522431660683e+00 9.1265109196448275e+00 2.4130257634571288e+00 0 0 0
206 15 8 1.3000000000000000e-01 8.8997573275465278e+00 3.9320303631929931e+00 6.9495257561894599e+00 0 0 0
202 15 7 1.0000000000000000e-02 7.0685384339553945e+00 3.2726544477754151e+00 7.7962534574049203e+00 0 0 0
211 15 9 5.9999999999999998e-02 6.1437227859120345e+00 3.5963253638050738e+00 7.3190120684006672e+00 0 0 0
309 19 6 -1.7000000000000001e-01 8.2161436360306830e+00 8.8659584893531260e+00 6.0866269866840881e+00 0 0 0
316 19 8 1.3000000000000000e-01 8.1520304702428490e+00 8.3547429347359738e+00 7.0470197679115145e+00 0 0 0
9 1 1 -1.3000000000000000e-01 9.4782514894239114e+00 4.5510186279358864e+00 4.7075364358310647e+00 0 0 0
203 15 7 1.0000000000000000e-02 6.7801524514680702e+00 3.2438257152545660e+00 9.2730877530016507e+00 0 0 0
213 15 9 5.9999999999999998e-02 5.7491544916259141e+00 3.5874626368632585e+00 9.3553258664365320e+00 0 0 0
63 7 1 -1.3000000000000000e-01 2.9139981831014552e+00 5.8391918482206062e+00 6.5244130246336800e+00 0 0 0
57 7 3 -6.6000000000000003e-01 2.4392416420345397e+00 5.5090751248891383e+00 8.9269222434172519e+00 0 0 0
56 7 2 1.0200000000000000e+00 2.3902886986551284e+00 4.0178170325444444e+00 9.4185338291594984e+00 0 0 0
210 15 9 5.9999999999999998e-02 7.3381701115053906e+00 2.3153812090446060e+00 7.3504588077513491e+00 0 0 0
216 15 8 1.3000000000000000e-01 9.1156926010613084e+00 1.7662163647851003e+01 8.7084018414065980e+00 0 -1 0
7 1 4 -5.3000000000000003e-01 1.0106946803033402e+01 6.3362778249109928e+00 6.0114767301319150e+00 0 0 0
205 15 6 -1.7000000000000001e-01 9.9574926409293525e+00 5.2638290330302020e+00 9.2005274152673771e+00 0 0 0
5 1 4 -5.3000000000000003e-01 1.0967201684456082e+01 8.0746393877324838e+00 3.8030326734889730e+00 0 0 0
204 15 6 -1.7000000000000001e-01 9.7251206576740543e+00 2.9584817189993662e+00 8.8743640192411419e+00 0 0 0
72 8 1 -1.3000000000000000e-01 1.7505882833797124e+01 6.8129128084003927e+00 2.8420924889002888e+00 -1 0 0
31 4 4 -5.3000000000000003e-01 7.5588617734148826e+00 9.2844160275811838e+00 9.6356752405932138e+00 0 0 0
59 7 4 -5.3000000000000003e-01 2.8289592192655331e+00 2.9901224616968980e+00 8.4889390198290648e+00 0 0 0
106 11 8 1.3000000000000000e-01 1.7404703010791685e+01 8.8496113836584982e+00 6.4969470320674896e+00 0 0 0
222 15 10 -1.7999999999999999e-01 1.0610992457812916e+01 7.6329254428591611e+00 1.0083828868738301e+01 0 0 0
218 15 8 1.3000000000000000e-01 1.0467329917225102e+01 5.5068754531356454e+00 8.2684326954520415e+00 0 0 0
223 15 9 5.9999999999999998e-02 1.0838247840470972e+01 8.4641560482583635e+00 9.4165831818089600e+00 0 0 0
6 1 2 1.0200000000000000e+00 1.0726698188182754e+01 5.2469809124092466e+00 5.3183684328849736e+00 0 0 0
2 1 2 1.0200000000000000e+00 1.1809645477454456e+01 7.0187317007179271e+00 3.3247345347612862e+00 0 0 0
3 1 3 -6.6000000000000003e-01 1.1580463540541428e+01 5.6114919156170631e+00 4.0280550877638781e+00 0 0 0
8 1 4 -5.3000000000000003e-01 1.1288950723169229e+01 4.2121937382993346e+00 6.1462515824292510e+00 0 0 0
91 11 5 1.2000000000000000e-01 1.5345345860246020e+01 8.2139813855258605e+00 6.3721624439419227e+00 0 0 0
92 11 6 -1.7000000000000001e-01 1.5295058778071697e+01 7.8122818106089245e+00 7.8356278271501614e+00 0 0 0
93 11 6 -1.7000000000000001e-01 1.4115072987321359e+01 8.9637760864334481e+00 6.1973621450561804e+00 0 0 0
94 11 7 1.0000000000000000e-02 1.3783187081641143e+01 7.7031234735971550e+00 8.2211301808535726e+00 0 0 0
95 11 7 1.0000000000000000e-02 1.2981570239554623e+01 8.3799789253785200e+00 7.1190818247439749e+00 0 0 0
96 11 6 -1.7000000000000001e-01 1.6465291073594649e+01 9.1386583248081870e+00 6.0260295469098377e+00 0 0 0
97 11 6 -1.7000000000000001e-01 1.5527244316327835e+01 7.0496391021420157e+00 5.4805679718652147e+00 0 0 0
98 11 8 1.3000000000000000e-01 1.5708795844384641e+01 8.5925346001954992e+00 8.4742462295550727e+00 0 0 0
99 11 8 1.3000000000000000e-01 1.5993841441153061e+01 6.9902004858456204e+00 7.9895472200884727e+00 0 0 0
101 11 8 1.3000000000000000e-01 1.3732454292463055e+01 9.0838734989686394e+00 5.1839591084992760e+00 0 0 0
103 11 9 5.9999999999999998e-02 1.3413301107503038e+01 6.6813063349447646e+00 8.3040766560655932e+00 0 0 0
104 11 9 5.9999999999999998e-02 1.2282471621674000e+01 9.1182725347740554e+00 7.5114972938140898e+00 0 0 0
105 11 9 5.9999999999999998e-02 1.2409957385445926e+01 7.5648695857632315e+00 6.6756162426888785e+00 0 0 0
109 11 8 1.3000000000000000e-01 1.5345605892769498e+01 7.4544044000641163e+00 4.4850889627242498e+00 0 0 0
110 11 8 1.3000000000000000e-01 1.6572081984446839e+01 6.7473073882086734e+00 5.4118949198302486e+00 0 0 0
111 11 7 1.0000000000000000e-02 1.4728673955433955e+01 5.7744550265747634e+00 5.8170317847991875e+00 0 0 0
112 11 9 5.9999999999999998e-02 1.3680770305419840e+01 6.0396504686560109e+00 5.6778360515954649e+00 0 0 0
113 11 9 5.9999999999999998e-02 1.4926952118521170e+01 5.4682399555910024e+00 6.8440294276833651e+00 0 0 0
114 11 10 -1.7999999999999999e-01 1.5175008723140380e+01 4.6031559714869195e+00 4.9248112186071662e+00 0 0 0
116 11 9 5.9999999999999998e-02 1.6178705064901621e+01 4.1891045427926104e+00 5.0194746495848985e+00 0 0 0
115 11 9 5.9999999999999998e-02 1.4530397341877178e+01 3.7305928097112329e+00 4.8203319493306074e+00 0 0 0
102 11 9 5.9999999999999998e-02 1.3590903484028239e+01 8.1840987269228496e+00 9.1800337226517357e+00 0 0 0
345 20 9 5.9999999999999998e-02 1.2330600846354169e+01 2.5568383863939239e+00 4.3767863756417755e+00 0 1 1
55 7 1 -1.3000000000000000e-01 1.6458642212597077e+01 3.7657226551154475e+00 9.4662746655390926e+00 -1 0 0
100 11 8 1.3000000000000000e-01 1.4231827328759797e+01 9.9730853490596303e+00 6.5916582365300993e+00 0 0 0
107 11 8 1.3000000000000000e-01 1.6593339097276779e+01 9.4358201198466496e+00 4.9853063283772485e+00 0 0 0
214 15 8 1.3000000000000000e-01 1.0361149774855017e+01 2.8108911137029273e+00 8.0017299991314736e+00 0 0 0
215 15 8 1.3000000000000000e-01 1.0291262914772350e+01 2.7399291144934561e+00 9.7796396196273179e+00 0 0 0
108 11 8 1.3000000000000000e-01 1.6340381588928331e+01 1.0121623284633422e+01 6.4798838430209864e+00 0 0 0
143 12 9 5.9999999999999998e-02 1.4385907588903018e+01 2.4241180119734675e+00 7.3306172980471551e+00 0 1 0
142 12 9 5.9999999999999998e-02 1.5539816862453998e+01 1.7244011725008015e+01 8.2698336134644315e+00 0 0 0
225 15 9 5.9999999999999998e-02 1.0209709684658897e+01 8.2152338843463788e+00 1.0913102791543320e+01 0 0 0
144 12 9 5.9999999999999998e-02 1.5529426024332320e+01 1.6934977284813034e+01 6.5677589971901176e+00 0 0 0
141 12 10 -1.7999999999999999e-01 1.4873089712321221e+01 1.7046212827314978e+01 7.4306931949445953e+00 0 0 0
274 17 9 5.9999999999999998e-02 3.5285608680379235e+00 2.3339990858530477e+00 6.0485832845682879e+00 1 1 0
279 17 9 5.9999999999999998e-02 1.7685627199627007e+01 1.6943026514950045e+01 3.5847526452453895e+00 0 0 0
323 19 8 1.3000000000000000e-01 6.1272172686438289e+00 9.4435458556949534e+00 7.4310929528490677e+00 0 0 0
312 19 6 -1.7000000000000001e-01 5.9435382724171202e+00 9.7163573522798181e+00 6.3920346799160628e+00 0 0 0
278 17 9 5.9999999999999998e-02 2.6797046974350969e+00 2.9249592330252847e+00 3.7928843926981370e+00 1 1 0
276 17 10 -1.7999999999999999e-01 2.9310258421478110e+00 1.7482531428938550e+01 4.0271762851760915e+00 1 0 0
308 19 6 -1.7000000000000001e-01 7.1593342152410866e+00 9.8284242371963551e+00 4.3699261729290901e+00 0 0 0
322 19 8 1.3000000000000000e-01 4.9069472729344277e+00 9.4899984510391384e+00 6.1429424123407843e+00 0 0 0
311 19 7 1.0000000000000000e-02 8.7581030060245322e+00 1.0306436129821989e+01 6.1199504674006011e+00 0 0 0
319 19 9 5.9999999999999998e-02 8.8595072174657137e+00 1.1296952769528204e+01 4.2028744579602435e+00 0 0 0
314 19 8 1.3000000000000000e-01 6.2309771391863293e+00 1.0200296811898234e+01 3.9367170246294991e+00 0 0 0
65 8 2 1.0200000000000000e+00 3.3596727620532132e+00 1.0392243464874820e+01 2.8379242227846273e+00 0 0 0
310 19 7 1.0000000000000000e-02 8.1229269242949798e+00 1.0936222457968586e+01 4.9205995807255736e+00 0 0 0
320 19 9 5.9999999999999998e-02 8.4050800750836903e+00 1.0669944808409312e+01 7.0848558647510087e+00 0 0 0
324 19 8 1.3000000000000000e-01 6.0198862223436667e+00 1.0801082855049001e+01 6.3189059099214484e+00 0 0 0
11 2 2 1.0200000000000000e+00 7.2057631442615726e+00 1.5760939938141366e+01 3.4236120357256050e+00 0 0 0
12 2 3 -6.6000000000000003e-01 7.6715224058676412e+00 1.6131427155572059e+01 4.8842199824693031e+00 0 0 0
13 2 4 -5.3000000000000003e-01 6.1600102240788033e+00 1.6579408713631253e+01 2.8243244215656271e+00 0 0 0
14 2 4 -5.3000000000000003e-01 7.0751120082693602e+00 1.4349896001130226e+01 3.2341295804043284e+00 0 0 0
15 2 2 1.0200000000000000e+00 7.9316235814972407e+00 1.5014611533184354e+01 5.9059488614051521e+00 0 0 0
16 2 4 -5.3000000000000003e-01 6.7498154440569662e+00 1.4346392003398359e+01 6.1875526401387422e+00 0 0 0
34 4 4 -5.3000000000000003e-01 6.2966569435848925e+00 1.2120150202415504e+01 8.9283846070689332e+00 0 0 0
318 19 9 5.9999999999999998e-02 7.6020693922790272e+00 1.1838236337398918e+01 5.2413558540285869e+00 0 0 0
255 17 6 -1.7000000000000001e-01 4.5688510988072046e+00 1.5887044111276682e+01 7.8463380739484894e+00 1 0 0
262 17 8 1.3000000000000000e-01 5.5579522020333032e+00 1.5429348831854025e+01 7.8465821462888119e+00 1 0 0
263 17 8 1.3000000000000000e-01 4.5866032484340895e+00 1.6940496183107413e+01 7.5675373787549480e+00 1 0 0
257 17 7 1.0000000000000000e-02 4.1076376322873767e+00 1.5847401012516405e+01 9.3055117362162019e+00 1 0 0
17 2 4 -5.3000000000000003e-01 8.6635748469786442e+00 1.5543390874404862e+01 7.0412621802644857e+00 0 0 0
18 2 1 -1.3000000000000000e-01 8.8432095809745750e+00 1.4005747668803401e+01 5.2018586785258023e+00 0 0 0
68 8 4 -5.3000000000000003e-01 3.2855780035962745e+00 1.0557175907354390e+01 4.3010760872688598e+00 0 0 0
258 17 6 -1.7000000000000001e-01 3.6407132708257524e+00 1.3804924474771056e+01 7.0699662978354132e+00 1 0 0
269 17 8 1.3000000000000000e-01 4.5533811883703699e+00 1.3497129998373831e+01 6.5599603855629711e+00 1 0 0
270 17 8 1.3000000000000000e-01 3.6082896394145001e+00 1.3310694180614755e+01 8.0407862179346026e+00 1 0 0
253 17 5 1.2000000000000000e-01 3.4508194839808399e+00 1.5242893319291854e+01 7.0784941021991612e+00 1 0 0
268 17 8 1.3000000000000000e-01 2.8495430823073575e+00 1.3298527668594021e+01 6.5173199022937709e+00 1 0 0
271 17 8 1.3000000000000000e-01 4.3149683361673645e+00 1.5454165483341450e+01 5.1943470093309658e+00 1 0 0
259 17 6 -1.7000000000000001e-01 3.3822374630974621e+00 1.5706399288099757e+01 5.6985269789347646e+00 1 0 0
64 8 1 -1.3000000000000000e-01 2.5298354131911438e+00 1.1561072412192260e+01 1.7766882361548426e+01 0 0 -1
10 2 1 -1.3000000000000000e-01 8.4143300424422200e+00 1.6159144273759210e+01 2.4494547251984473e+00 0 0 0
272 17 8 1.3000000000000000e-01 2.6100155850952000e+00 1.5152017649252885e+01 5.1654785706862842e+00 1 0 0
273 17 7 1.0000000000000000e-02 2.9155213764227264e+00 1.7186664977137745e+01 5.5332380495196718e+00 1 0 0
157 13 9 5.9999999999999998e-02 4.4188477975305815e+00 1.4274817537212071e+01 1.7766703509491727e+01 0 0 0
275 17 9 5.9999999999999998e-02 1.7480284271635831e+01 1.7368294225031917e+01 5.8492896101190697e+00 0 0 0
67 8 4 -5.3000000000000003e-01 4.6325015544972654e+00 1.0513179126208019e+01 1.7718724674795922e+01 0 0 -1
347 20 9 5.9999999999999998e-02 1.0455614298424107e+01 1.6753673463309127e+01 3.8876348722482925e+00 0 0 1
321 19 9 5.9999999999999998e-02 9.8427882984016115e+00 1.0200982293235857e+01 6.1319285193116562e+00 0 0 0
256 17 7 1.0000000000000000e-02 2.6587413096045740e+00 1.5337517720062575e+01 9.3626794540396254e+00 1 0 0
254 17 6 -1.7000000000000001e-01 2.2394738899963973e+00 1.5496292267455683e+01 7.8793374894632757e+00 1 0 0
277 17 9 5.9999999999999998e-02 3.9160293829728214e+00 1.7300168746327895e+01 3.5978534862321276e+00 1 0 0
131 12 9 5.9999999999999998e-02 9.9689525268347658e+00 1.2889122255336707e+01 9.2750324189236864e+00 0 0 0
265 17 9 5.9999999999999998e-02 1.7613487281260674e+01 1.5841784832867020e+01 1.0089044789204294e+01 0 0 0
127 12 8 1.3000000000000000e-01 1.0420496329202246e+01 1.5098499791022416e+01 8.9327641664194388e+00 0 0 0
260 17 8 1.3000000000000000e-01 1.6950987644892493e+01 1.4926866862330577e+01 7.5817615000185858e+00 0 0 0
132 12 9 5.9999999999999998e-02 1.0201040072640270e+01 1.2815580506350324e+01 7.4541568350160938e+00 0 0 0
122 12 7 1.0000000000000000e-02 1.0651563827534819e+01 1.2988891870130004e+01 8.4312942960684101e+00 0 0 0
128 12 8 1.3000000000000000e-01 1.1190289929902756e+01 1.4796138925667282e+01 7.4044914843138745e+00 0 0 0
130 12 9 5.9999999999999998e-02 1.2082978698351530e+01 1.1437308714126573e+01 7.7556200795149790e+00 0 0 0
338 20 7 1.0000000000000000e-02 1.1412225273267625e+01 1.6261992243453225e+01 3.7117051788136282e+00 0 0 1
348 20 9 5.9999999999999998e-02 1.1388476057304230e+01 1.5393694998697399e+01 4.3699620487808941e+00 0 0 1
120 12 6 -1.7000000000000001e-01 1.1130909749012051e+01 1.4440273064431485e+01 8.4329076059334227e+00 0 0 0
138 12 7 1.0000000000000000e-02 1.3851315190713285e+01 1.5877916190030282e+01 7.4981308253681096e+00 0 0 0
139 12 9 5.9999999999999998e-02 1.3064585674689232e+01 1.5975337896510476e+01 6.7502191798362512e+00 0 0 0
19 3 1 -1.3000000000000000e-01 1.2288435086385507e+01 1.0851505602020806e+01 3.4195802476728412e+00 0 0 0
20 3 2 1.0200000000000000e+00 1.2290255512735595e+01 1.2297187452405618e+01 4.0319752725744875e+00 0 0 0
21 3 3 -6.6000000000000003e-01 1.3347018441817674e+01 1.3059411460653655e+01 3.2158863081307492e+00 0 0 0
22 3 4 -5.3000000000000003e-01 1.0946164884024467e+01 1.2729316700296661e+01 3.8265835222562847e+00 0 0 0
23 3 4 -5.3000000000000003e-01 1.2653298464525498e+01 1.2056747127240815e+01 5.4020406860623673e+00 0 0 0
24 3 2 1.0200000000000000e+00 1.4614944790094549e+01 1.3784981619097476e+01 3.8484668101950197e+00 0 0 0
25 3 4 -5.3000000000000003e-01 1.4420100531194571e+01 1.4860766616527794e+01 4.7579976934362822e+00 0 0 0
26 3 4 -5.3000000000000003e-01 1.5637185504072482e+01 1.3985449437684471e+01 2.8860791453629071e+00 0 0 0
27 3 1 -1.3000000000000000e-01 1.5205032311091854e+01 1.2577645190605798e+01 4.7921615141892646e+00 0 0 0
119 12 6 -1.7000000000000001e-01 1.3046633742752045e+01 1.3145881170286231e+01 8.6230132828187713e+00 0 0 0
121 12 7 1.0000000000000000e-02 1.1901841514816548e+01 1.2143113669222572e+01 8.5660735892918449e+00 0 0 0
126 12 8 1.3000000000000000e-01 1.3538009931674731e+01 1.3118783585508734e+01 7.6505826190601836e+00 0 0 0
140 12 9 5.9999999999999998e-02 1.4410436375468938e+01 1.4987815852893878e+01 7.2101879185116289e+00 0 0 0
261 17 8 1.3000000000000000e-01 1.7580861022468259e+01 1.6553367012842017e+01 7.7918016734145068e+00 0 0 0
337 20 7 1.0000000000000000e-02 1.2645084419223252e+01 1.7186905452260483e+01 3.9719892271817629e+00 0 0 1
346 20 9 5.9999999999999998e-02 1.3334076195335554e+01 1.6760261300421234e+01 4.7007355213967230e+00 0 0 1
52 6 4 -5.3000000000000003e-01 1.6440440620548230e+01 1.2606921262624278e+01 8.6090670948836170e+00 0 0 0
118 12 5 1.2000000000000000e-01 1.2493761056760050e+01 1.4407932180509382e+01 9.0699919056656650e+00 0 0 0
124 12 6 -1.7000000000000001e-01 1.3324886714854147e+01 1.5621319050548058e+01 8.9263149727178739e+00 0 0 0
136 12 8 1.3000000000000000e-01 1.2923433227911913e+01 1.6510799410885845e+01 9.4115633172957125e+00 0 0 0
51 6 2 1.0200000000000000e+00 1.6383419362882385e+01 1.1646530747231962e+01 9.6795256695388527e+00 0 0 0
335 20 6 -1.7000000000000001e-01 1.3383400154895925e+01 1.7366517736865170e+01 2.5721349954565760e+00 0 0 1
336 20 6 -1.7000000000000001e-01 1.1616815392089190e+01 1.5985918966030084e+01 2.2095300511289047e+00 0 0 1
342 20 8 1.3000000000000000e-01 1.4138035934606153e+01 1.6588182206720091e+01 2.4602204965694310e+00 0 0 1
344 20 8 1.3000000000000000e-01 1.2094703454544952e+01 1.5007167590829136e+01 1.7762984539058671e+01 0 0 0
125 12 8 1.3000000000000000e-01 1.3881545258688405e+01 1.2886555450830384e+01 9.2737660150163155e+00 0 0 0
137 12 8 1.3000000000000000e-01 1.4258572210555004e+01 1.5437877221981898e+01 9.4577156741431470e+00 0 0 0
54 6 1 -1.3000000000000000e-01 1.7624187244638357e+01 1.0644170434133954e+01 9.4363486881351584e+00 0 0 0
129 12 9 5.9999999999999998e-02 1.1820134219586102e+01 1.1580113504415175e+01 9.4956761115977883e+00 0 0 0
341 20 8 1.3000000000000000e-01 1.3942218461668318e+01 2.7081482467287721e+00 2.5079180873041751e+00 0 1 1
53 6 4 -5.3000000000000003e-01 1.5305041909305725e+01 1.0694908516496129e+01 9.7777662240907617e+00 0 0 0
201 15 6 -1.7000000000000001e-01 7.9039617058989355e+00 4.0985057875623214e+00 9.9416569793779033e+00 0 0 0
220 15 9 5.9999999999999998e-02 8.9613906205480411e+00 6.4748820677975827e+00 1.0632833948568555e+01 0 0 0
212 15 9 5.9999999999999998e-02 6.8627182941243987e+00 1.7783575569497625e+01 9.5452153541191578e+00 0 -1 0
209 15 8 1.3000000000000000e-01 7.3527561909977708e+00 5.0362128691311820e+00 9.8732180855491691e+00 0 0 0
197 14 9 5.9999999999999998e-02 5.4377084782658702e+00 7.2291412105405755e+00 9.9926849826471482e+00 0 0 0
196 14 9 5.9999999999999998e-02 3.9284789421208863e+00 7.0974644318428384e+00 1.0888245871810581e+01 0 0 0
70 8 4 -5.3000000000000003e-01 4.2949941773356946e+00 7.3007742813791827e+00 2.4653113335039283e+00 0 0 0
69 8 2 1.0200000000000000e+00 3.0004563194742588e+00 7.7011079908575288e+00 1.7598738413184638e+01 0 0 -1
184 14 9 5.9999999999999998e-02 5.2394251688716960e+00 4.9332456714850625e+00 1.6766180152681819e+01 0 0 0
170 13 9 5.9999999999999998e-02 2.9898099595445333e+00 8.9466969927901481e+00 1.3864734807322872e+01 0 0 0
172 14 5 1.2000000000000000e-01 5.2443803528896229e+00 4.3142031028754975e+00 1.3588463019774109e+01 0 0 0
173 14 6 -1.7000000000000001e-01 4.5847773731854282e+00 4.7968110921861697e+00 1.4781872129956220e+01 0 0 0
174 14 6 -1.7000000000000001e-01 6.6258604665610976e+00 4.3000074829425490e+00 1.4052461148811293e+01 0 0 0
175 14 7 1.0000000000000000e-02 5.2279933966237255e+00 4.1277413564801870e+00 1.6032124063943485e+01 0 0 0
176 14 7 1.0000000000000000e-02 6.6313959871833665e+00 3.7694471406102341e+00 1.5416551283904020e+01 0 0 0
177 14 6 -1.7000000000000001e-01 4.9074822035961567e+00 2.8779153385450886e+00 1.3306537026355624e+01 0 0 0
178 14 6 -1.7000000000000001e-01 5.0853426687247341e+00 5.1213859022794797e+00 1.2346826142855734e+01 0 0 0
179 14 8 1.3000000000000000e-01 3.5565673499539834e+00 4.4362570350858395e+00 1.4757560886697524e+01 0 0 0
180 14 8 1.3000000000000000e-01 4.6103399961735017e+00 5.8781574238070764e+00 1.4915449437088709e+01 0 0 0
181 14 8 1.3000000000000000e-01 7.2819462606793861e+00 3.7604869545974529e+00 1.3369617664823647e+01 0 0 0
182 14 8 1.3000000000000000e-01 7.0733669777484796e+00 5.2937542826379786e+00 1.4049087338369434e+01 0 0 0
183 14 9 5.9999999999999998e-02 4.6670804001206587e+00 3.3551442358022836e+00 1.6557744203158620e+01 0 0 0
185 14 9 5.9999999999999998e-02 6.7505809024902401e+00 2.6861244748983144e+00 1.5420181666082858e+01 0 0 0
186 14 9 5.9999999999999998e-02 7.4409053254098296e+00 4.1007169901993983e+00 1.6066752099615378e+01 0 0 0
187 14 8 1.3000000000000000e-01 3.9297979031731201e+00 2.6987047618482678e+00 1.2859521162223951e+01 0 0 0
188 14 8 1.3000000000000000e-01 5.6903460831299864e+00 2.3539518529619716e+00 1.2758456188475995e+01 0 0 0
190 14 8 1.3000000000000000e-01 5.4830834287075074e+00 4.5646863289291915e+00 1.1498478322751566e+01 0 0 0
191 14 8 1.3000000000000000e-01 4.0204023926857362e+00 5.1893764541678742e+00 1.2125273244126095e+01 0 0 0
192 14 7 1.0000000000000000e-02 5.6857589977216696e+00 6.4902451110986243e+00 1.2190132965948525e+01 0 0 0
193 14 9 5.9999999999999998e-02 6.7043506641879196e+00 6.2297594087015202e+00 1.1903036664563803e+01 0 0 0
194 14 9 5.9999999999999998e-02 5.6761061604927470e+00 7.1107185416814938e+00 1.3086082594554941e+01 0 0 0
195 14 10 -1.7999999999999999e-01 4.9990462391656010e+00 7.2748765233957329e+00 1.0989324317385552e+01 0 0 0
198 14 9 5.9999999999999998e-02 5.0785088683390800e+00 8.3267141842889014e+00 1.1263421769010005e+01 0 0 0
250 16 9 5.9999999999999998e-02 6.7024757645796287e+00 8.2713088587401575e+00 1.7058154060824492e+01 0 0 0
251 16 9 5.9999999999999998e-02 6.4300020177361885e+00 7.6766299323760325e+00 1.5376718472693000e+01 0 0 0
252 16 9 5.9999999999999998e-02 5.6700466554220021e+00 9.2003662941314275e+00 1.5944116785667900e+01 0 0 0
249 16 10 -1.7999999999999999e-01 6.5425215463003266e+00 8.5513139291614397e+00 1.6017088247631243e+01 0 0 0
246 16 7 1.0000000000000000e-02 7.7501817244650182e+00 9.3082300032744634e+00 1.5612888876604123e+01 0 0 0
208 15 8 1.3000000000000000e-01 8.1571155070539447e+00 3.7130503614810006e+00 1.0929150526933606e+01 0 0 0
171 13 9 5.9999999999999998e-02 4.1763339958063286e+00 9.6202042825486735e+00 1.2715566707289968e+01 0 0 0
168 13 10 -1.7999999999999999e-01 3.3074317139698799e+00 9.8441481697716711e+00 1.3334165267388856e+01 0 0 0
37 5 1 -1.3000000000000000e-01 8.4795970049847362e+00 7.2077481623422441e+00 1.3603840781660084e+01 0 0 0
248 16 9 5.9999999999999998e-02 7.8145769424135461e+00 9.2913301982912913e+00 1.4525058978522358e+01 0 0 0
247 16 9 5.9999999999999998e-02 8.6490164405293033e+00 8.7783472342915712e+00 1.5927732584258505e+01 0 0 0
32 4 4 -5.3000000000000003e-01 7.9753236903145570e+00 9.0476636363093839e+00 1.1967836291326496e+01 0 0 0
1 1 1 -1.3000000000000000e-01 1.1190426789280760e+01 6.6830133180932059e+00 1.7519135798360210e+01 0 0 -1
58 7 4 -5.3000000000000003e-01 2.7902913208034996e+00 3.8319844679530446e+00 1.0784220010995968e+01 0 0 0
236 16 8 1.3000000000000000e-01 1.0400572261427648e+01 9.8777936195238478e+00 1.5858050281225612e+01 0 0 0
169 13 9 5.9999999999999998e-02 2.4895393364256395e+00 1.0180435750914297e+01 1.2697165340135616e+01 0 0 0
4 1 4 -5.3000000000000003e-01 1.3210808086029470e+01 7.2716364644166500e+00 3.1558760902877019e+00 0 0 0
117 11 9 5.9999999999999998e-02 1.5139125873712649e+01 5.0606730114195884e+00 3.9362785569379630e+00 0 0 0
217 15 8 1.3000000000000000e-01 1.0714081059933489e+01 4.8989608082764216e+00 9.8949705848740006e+00 0 0 0
351 20 8 1.3000000000000000e-01 1.0867629220435754e+01 3.0906357080741169e+00 2.4526441413057936e+00 0 1 1
304 18 9 5.9999999999999998e-02 1.3989690262876605e+01 9.6447364587109856e+00 2.2698806286621540e+00 0 0 1
38 5 2 1.0200000000000000e+00 9.8813654888874840e+00 6.6160884266231497e+00 1.4067902558999952e+01 0 0 0
41 5 4 -5.3000000000000003e-01 9.5138827327364250e+00 5.8325371116031999e+00 1.5219094390751353e+01 0 0 0
71 8 4 -5.3000000000000003e-01 2.7393605167359270e+00 7.4277587609619466e+00 1.6207108641726741e+01 0 0 -1
45 5 1 -1.3000000000000000e-01 9.9093269091467757e+00 3.4484973887402095e+00 1.2508310129172388e+01 0 0 0
90 10 1 -1.3000000000000000e-01 2.2569639889225792e+00 4.3961975223120078e+00 1.6754532010131925e+01 0 1 0
224 15 9 5.9999999999999998e-02 1.1495446481390127e+01 7.1655115823303142e+00 1.0516346601706040e+01 0 0 0
43 5 4 -5.3000000000000003e-01 1.1357214739977657e+01 3.7996684131450280e+00 1.4288236822957584e+01 0 0 0
291 18 9 5.9999999999999998e-02 1.6134113473245627e+01 5.8348570437144041e+00 1.1937587476443312e+01 0 0 0
292 18 9 5.9999999999999998e-02 1.7323261652471011e+01 7.1342291956451422e+00 1.2113609483069082e+01 0 0 0
283 18 7 1.0000000000000000e-02 1.6302480461573609e+01 6.8311980024122967e+00 1.2345954254009355e+01 0 0 0
89 10 4 -5.3000000000000003e-01 1.5520666248065742e+01 4.4170665658339594e+00 1.6172448727986762e+01 -1 1 0
40 5 4 -5.3000000000000003e-01 1.0715887666131172e+01 7.7751327480465759e+00 1.4329310824112422e+01 0 0 0
288 18 8 1.3000000000000000e-01 1.6871156921952814e+01 7.5715634623452708e+00 1.4236820597843286e+01 0 0 0
287 18 8 1.3000000000000000e-01 1.6320637867063635e+01 6.1085069717032781e+00 1.4583921593112130e+01 0 0 0
350 20 8 1.3000000000000000e-01 1.0541209025217535e+01 2.3870691746012973e+00 1.6517630268283888e+01 0 1 0
299 18 8 1.3000000000000000e-01 1.4005167924032596e+01 7.0541430607799764e+00 1.6047860132981690e+01 0 0 0
44 5 4 -5.3000000000000003e-01 1.2092411884150296e+01 4.1181514498247180e+00 1.1935780574403735e+01 0 0 0
39 5 3 -6.6000000000000003e-01 1.0436310700456767e+01 5.7303162161366323e+00 1.2863288573416808e+01 0 0 0
42 5 2 1.0200000000000000e+00 1.1127697197700769e+01 4.3284003106073339e+00 1.2959851638337769e+01 0 0 0
280 18 5 1.2000000000000000e-01 1.4683838931837675e+01 7.3557355154669217e+00 1.4144867907310891e+01 0 0 0
281 18 6 -1.7000000000000001e-01 1.6079713336376017e+01 6.9097448929904468e+00 1.3885509561794263e+01 0 0 0
282 18 6 -1.7000000000000001e-01 1.4487097338363325e+01 8.3025916165246656e+00 1.3049919517040854e+01 0 0 0
284 18 7 1.0000000000000000e-02 1.5276864097960400e+01 7.8453000304906118e+00 1.1864272192752933e+01 0 0 0
285 18 6 -1.7000000000000001e-01 1.3825614665430610e+01 6.2228290725566771e+00 1.3825571853201463e+01 0 0 0
286 18 6 -1.7000000000000001e-01 1.4284501450353318e+01 7.9227184818269212e+00 1.5451742927800797e+01 0 0 0
289 18 8 1.3000000000000000e-01 1.3445625912575432e+01 8.5059870113960123e+00 1.2801376223272648e+01 0 0 0
290 18 8 1.3000000000000000e-01 1.4874062565035693e+01 9.2267905891570425e+00 1.3478778939329509e+01 0 0 0
293 18 9 5.9999999999999998e-02 1.4606169670834392e+01 7.3179481543437070e+00 1.1186131238856985e+01 0 0 0
294 18 9 5.9999999999999998e-02 1.5725277229101122e+01 8.6933168851531590e+00 1.1346972167913108e+01 0 0 0
295 18 8 1.3000000000000000e-01 1.3864591722323404e+01 5.5646709576238420e+00 1.4693393698692383e+01 0 0 0
296 18 8 1.3000000000000000e-01 1.2795603505009833e+01 6.5241564865906643e+00 1.3635611252027520e+01 0 0 0
297 18 8 1.3000000000000000e-01 1.4094771493649763e+01 5.5412350124755871e+00 1.3018856070703455e+01 0 0 0
298 18 8 1.3000000000000000e-01 1.3381461274448425e+01 8.4930598152940018e+00 1.5234866539369492e+01 0 0 0
87 10 2 1.0200000000000000e+00 1.6528594540386873e+01 3.4587284100015419e+00 1.6399125709572619e+01 -1 1 0
300 18 7 1.0000000000000000e-02 1.5375891447549689e+01 8.6640891615167952e+00 1.6320866476209545e+01 0 0 0
302 18 9 5.9999999999999998e-02 1.5730289827771353e+01 7.9063742336088465e+00 1.7019490886837428e+01 0 0 0
339 20 6 -1.7000000000000001e-01 1.1366253799126079e+01 2.6910375317212454e+00 1.7161610548471934e+01 0 1 0
349 20 8 1.3000000000000000e-01 1.1876075775811444e+01 3.5292469064601621e+00 1.6686960326301659e+01 0 1 0
82 10 1 -1.3000000000000000e-01 1.7112604897737320e+01 3.4342295387116488e+00 1.2814066348191954e+01 -1 1 0
84 10 3 -6.6000000000000003e-01 1.7047525208479023e+01 2.6443936513032851e+00 1.5114203044926095e+01 -1 1 0