ITEM: TIMESTEP
0
ITEM: NUMBER OF ATOMS
360
ITEM: BOX BOUNDS pp pp pp
0.0000000000000000e+00 2.0000000000000000e+01
0.0000000000000000e+00 2.0000000000000000e+01
0.0000000000000000e+00 2.0000000000000000e+01
ITEM: ATOMS id mol type element x y z ix iy iz 
5 1 4 O 9.32695 5.51705 3.14784 0 0 0 
55 7 1 F 1.04712 4.43161 8.43605 0 0 0 
56 7 2 S 1.49518 3.36177 7.36782 0 0 0 
57 7 3 N 1.73601 4.24317 6.09661 0 0 0 
58 7 4 O 2.68374 2.78537 7.93427 0 0 0 
59 7 4 O 0.341518 2.51406 7.24325 0 0 0 
60 7 2 S 3.09575 4.73572 5.50912 0 0 0 
61 7 4 O 4.05179 5.18527 6.49109 0 0 0 
62 7 4 O 2.91582 5.57084 4.35535 0 0 0 
63 7 1 F 3.7377 3.42883 4.91236 0 0 0 
72 8 1 F 0.92111 8.46835 4.16745 0 0 0 
199 15 5 N 8.09331 3.08758 8.8964 0 0 0 
200 15 6 C 7.8909 2.66451 7.50119 0 0 0 
201 15 6 C 6.94228 2.50687 9.5964 0 0 0 
202 15 7 C 6.37591 2.64893 7.24347 0 0 0 
203 15 7 C 5.74883 2.59871 8.63163 0 0 0 
204 15 6 C 9.3423 2.49903 9.41993 0 0 0 
205 15 6 C 8.22155 4.55342 9.07592 0 0 0 
206 15 8 H 8.2291 1.63755 7.36311 0 0 0 
207 15 8 H 8.43766 3.26314 6.77264 0 0 0 
210 15 9 H 6.08519 1.78004 6.65304 0 0 0 
211 15 9 H 6.04043 3.52899 6.69479 0 0 0 
212 15 9 H 5.07964 1.74539 8.74184 0 0 0 
213 15 9 H 5.1436 3.49018 8.79619 0 0 0 
216 15 8 H 9.41906 1.42226 9.26903 0 0 0 
218 15 8 H 9.0929 4.90487 8.52336 0 0 0 
219 15 7 C 7.04087 5.49049 8.72575 0 0 0 
220 15 9 H 6.17713 5.26381 9.3508 0 0 0 
221 15 9 H 6.7328 5.36911 7.68726 0 0 0 
222 15 10 C 7.39259 6.97015 8.95686 0 0 0 
223 15 9 H 8.18186 7.29808 8.28039 0 0 0 
225 15 9 H 6.5237 7.60794 8.7945 0 0 0 
307 19 5 N 5.90533 8.82026 4.84316 0 0 0 
308 19 6 C 5.85841 9.88751 3.83986 0 0 0 
309 19 6 C 7.2829 8.92778 5.34504 0 0 0 
310 19 7 C 7.20097 9.83147 3.09508 0 0 0 
311 19 7 C 8.17368 9.29404 4.14724 0 0 0 
312 19 6 C 4.98312 9.0746 5.96152 0 0 0 
313 19 6 C 5.52144 7.49497 4.28825 0 0 0 
315 19 8 H 4.98551 9.85272 3.188 0 0 0 
316 19 8 H 7.35352 9.76715 6.03682 0 0 0 
317 19 8 H 7.62374 8.04403 5.88441 0 0 0 
319 19 9 H 7.20433 9.17049 2.22836 0 0 0 
321 19 9 H 8.71856 8.42153 3.78679 0 0 0 
322 19 8 H 3.94097 8.92362 5.68005 0 0 0 
323 19 8 H 5.16449 8.41114 6.80711 0 0 0 
325 19 8 H 5.63484 6.72492 5.05132 0 0 0 
326 19 8 H 4.45322 7.52176 4.07311 0 0 0 
327 19 7 C 6.16938 6.99024 2.97975 0 0 0 
328 19 9 H 7.25725 7.01814 3.04181 0 0 0 
329 19 9 H 5.84884 7.6107 2.14286 0 0 0 
330 19 10 C 5.769 5.57111 2.59365 0 0 0 
331 19 9 H 4.69853 5.52007 2.39468 0 0 0 
332 19 9 H 6.01413 4.86363 3.38579 0 0 0 
333 19 9 H 6.29904 5.26642 1.69125 0 0 0 
208 15 8 H 7.11042 1.44832 9.79463 0 0 0 
224 15 9 H 7.73687 7.15175 9.97499 0 0 0 
4 1 4 O 10.3735 6.56394 5.10001 0 0 0 
1 1 1 F 11.5398 6.3527 3.06765 0 0 0 
2 1 2 S 10.476 5.65289 3.99515 0 0 0 
3 1 3 N 11.1679 4.28353 4.31377 0 0 0 
6 1 2 S 11.5098 3.62741 5.69619 0 0 0 
7 1 4 O 10.7832 4.16771 6.81226 0 0 0 
8 1 4 O 12.9163 3.41294 5.87937 0 0 0 
9 1 1 F 10.9107 2.17489 5.55758 0 0 0 
91 11 5 N 13.2196 7.76775 7.56516 0 0 0 
92 11 6 C 13.0614 7.53795 9.00931 0 0 0 
93 11 6 C 13.4612 6.42368 7.03048 0 0 0 
94 11 7 C 14.006 6.39711 9.39319 0 0 0 
95 11 7 C 14.2459 5.63951 8.08992 0 0 0 
96 11 6 C 11.9572 8.3026 7.02918 0 0 0 
97 11 6 C 14.2586 8.749 7.16399 0 0 0 
98 11 8 H 12.0617 7.16435 9.23104 0 0 0 
99 11 8 H 13.1923 8.425 9.62908 0 0 0 
100 11 8 H 12.5058 5.91123 6.91781 0 0 0 
101 11 8 H 13.9328 6.39543 6.04817 0 0 0 
103 11 9 H 14.9449 6.76924 9.80318 0 0 0 
104 11 9 H 13.8762 4.61598 8.15146 0 0 0 
105 11 9 H 15.3117 5.58779 7.86732 0 0 0 
106 11 8 H 11.739 9.30096 7.40835 0 0 0 
107 11 8 H 11.9732 8.36411 5.94103 0 0 0 
108 11 8 H 11.0906 7.69148 7.28136 0 0 0 
109 11 8 H 14.238 8.83437 6.07753 0 0 0 
110 11 8 H 13.9854 9.73759 7.53303 0 0 0 
111 11 7 C 15.7414 8.52405 7.53994 0 0 0 
112 11 9 H 16.0952 7.57636 7.13399 0 0 0 
113 11 9 H 15.8662 8.48734 8.62215 0 0 0 
114 11 10 C 16.6487 9.64162 6.98311 0 0 0 
116 11 9 H 16.5256 9.77564 5.90842 0 0 0 
117 11 9 H 17.7009 9.40988 7.14828 0 0 0 
214 15 8 H 10.225 2.9317 8.94911 0 0 0 
320 19 9 H 8.9093 10.0539 4.41102 0 0 0 
324 19 8 H 5.03133 10.0918 6.35012 0 0 0 
10 2 1 F 5.60943 13.4413 4.33955 0 0 0 
11 2 2 S 7.15778 13.6392 4.12845 0 0 0 
12 2 3 N 7.39402 13.3739 2.59271 0 0 0 
13 2 4 O 7.41732 14.9828 4.55344 0 0 0 
14 2 4 O 7.73363 12.5826 4.92939 0 0 0 
15 2 2 S 6.66589 14.0064 1.35127 0 0 0 
16 2 4 O 5.33103 14.4835 1.58361 0 0 0 
17 2 4 O 6.88195 13.2277 0.162788 0 0 0 
18 2 1 F 7.50272 15.3089 1.06802 0 0 0 
34 4 4 O 7.63795 10.7747 9.86399 0 0 0 
64 8 1 F 1.22945 12.4345 6.60407 0 0 0 
65 8 2 S 0.981046 10.8812 6.57739 0 0 0 
66 8 3 N 0.384484 10.6598 5.14327 0 0 0 
67 8 4 O 2.2837 10.3247 6.82623 0 0 0 
69 8 2 S 1.03143 10.0049 3.87243 0 0 0 
70 8 4 O 2.45067 10.2235 3.72094 0 0 0 
71 8 4 O 0.213325 10.1776 2.70402 0 0 0 
120 12 6 C 8.94283 14.0506 9.21139 0 0 0 
122 12 7 C 8.74991 13.4447 7.81692 0 0 0 
128 12 8 H 8.12726 14.7102 9.50789 0 0 0 
131 12 9 H 8.20397 12.5023 7.86237 0 0 0 
132 12 9 H 8.18346 14.0984 7.15372 0 0 0 
136 12 8 H 9.58294 16.6709 9.45525 0 0 0 
138 12 7 C 9.77233 16.4401 7.33857 0 0 0 
139 12 9 H 8.73042 16.1567 7.18946 0 0 0 
141 12 10 C 9.88697 17.9379 7.03724 0 0 0 
143 12 9 H 9.284 18.5208 7.73354 0 0 0 
144 12 9 H 9.53495 18.1473 6.02713 0 0 0 
314 19 8 H 5.82937 10.8575 4.33617 0 0 0 
318 19 9 H 7.47879 10.8029 2.68622 0 0 0 
36 4 1 F 5.27469 10.5127 9.77497 0 0 0 
127 12 8 H 8.91717 13.2174 9.91372 0 0 0 
68 8 4 O 19.9875 10.6906 7.59974 -1 0 0 
19 3 1 F 15.0652 16.5603 2.02549 0 0 0 
20 3 2 S 14.8897 15.0248 2.31938 0 0 0 
21 3 3 N 13.6528 14.9645 3.27385 0 0 0 
22 3 4 O 14.6894 14.4247 1.02852 0 0 0 
23 3 4 O 16.1023 14.6908 3.01406 0 0 0 
24 3 2 S 12.2663 15.6725 3.09096 0 0 0 
25 3 4 O 12.1291 16.4157 1.86638 0 0 0 
26 3 4 O 11.8389 16.2919 4.31821 0 0 0 
27 3 1 F 11.2738 14.4633 2.91996 0 0 0 
52 6 4 O 14.2943 13.1938 9.72488 0 0 0 
54 6 1 F 14.1937 10.832 9.96827 0 0 0 
115 11 9 H 16.4596 10.6032 7.46028 0 0 0 
118 12 5 N 10.2626 14.6948 9.20903 0 0 0 
119 12 6 C 11.0939 13.8495 8.33922 0 0 0 
121 12 7 C 10.1608 13.2483 7.27327 0 0 0 
124 12 6 C 10.2278 16.1105 8.77826 0 0 0 
125 12 8 H 11.5289 13.0218 8.89937 0 0 0 
126 12 8 H 11.9346 14.3823 7.89484 0 0 0 
129 12 9 H 10.3646 12.1873 7.12848 0 0 0 
130 12 9 H 10.2623 13.7261 6.29883 0 0 0 
137 12 8 H 11.2209 16.5409 8.90665 0 0 0 
140 12 9 H 10.3675 15.9016 6.60113 0 0 0 
142 12 9 H 10.92 18.2792 7.1037 0 0 0 
253 17 5 N 16.7094 15.9317 6.51396 0 0 0 
254 17 6 C 16.3387 17.0083 5.58304 0 0 0 
255 17 6 C 15.4793 15.133 6.5741 0 0 0 
256 17 7 C 14.8519 17.33 5.82959 0 0 0 
257 17 7 C 14.3213 16.1372 6.61867 0 0 0 
258 17 6 C 17.8001 15.1127 5.94937 0 0 0 
259 17 6 C 17.2195 16.4054 7.82967 0 0 0 
260 17 8 H 16.4039 16.6496 4.55583 0 0 0 
261 17 8 H 16.9816 17.8872 5.63227 0 0 0 
262 17 8 H 15.3547 14.5755 5.64574 0 0 0 
263 17 8 H 15.4609 14.4033 7.38368 0 0 0 
264 17 9 H 14.3129 17.4275 4.88723 0 0 0 
265 17 9 H 14.7149 18.2572 6.38594 0 0 0 
266 17 9 H 13.4008 15.7349 6.19563 0 0 0 
267 17 9 H 14.0632 16.4354 7.63482 0 0 0 
268 17 8 H 18.72 15.6808 5.81122 0 0 0 
269 17 8 H 18.0477 14.264 6.58695 0 0 0 
270 17 8 H 17.5699 14.6818 4.97498 0 0 0 
271 17 8 H 17.4989 15.5387 8.42866 0 0 0 
272 17 8 H 18.1499 16.9504 7.66978 0 0 0 
273 17 7 C 16.3483 17.2958 8.75164 0 0 0 
274 17 9 H 15.4613 16.7562 9.08365 0 0 0 
275 17 9 H 16.0294 18.2044 8.24094 0 0 0 
277 17 9 H 17.9912 18.2433 9.85939 0 0 0 
44 5 4 O 9.164 4.487 12.4723 0 0 0 
169 13 9 H 3.76862 9.6499 16.5568 0 0 0 
170 13 9 H 2.03368 9.9676 16.6103 0 0 0 
172 14 5 N 4.95741 5.47826 14.4169 0 0 0 
173 14 6 C 5.24987 6.42955 15.5002 0 0 0 
174 14 6 C 6.27708 4.97687 14.0008 0 0 0 
175 14 7 C 6.58627 7.09791 15.1605 0 0 0 
176 14 7 C 7.30248 6.08682 14.2838 0 0 0 
177 14 6 C 4.15508 4.36027 14.9484 0 0 0 
178 14 6 C 4.1667 6.06334 13.3068 0 0 0 
179 14 8 H 5.3997 5.89875 16.4403 0 0 0 
180 14 8 H 4.46303 7.16446 15.6702 0 0 0 
181 14 8 H 6.58256 4.11108 14.5883 0 0 0 
182 14 8 H 6.31904 4.64188 12.9644 0 0 0 
183 14 9 H 7.16724 7.32427 16.0546 0 0 0 
184 14 9 H 6.45612 8.03389 14.6173 0 0 0 
185 14 9 H 8.1603 5.67806 14.8178 0 0 0 
186 14 9 H 7.67017 6.56025 13.3734 0 0 0 
187 14 8 H 3.1929 4.69192 15.3387 0 0 0 
188 14 8 H 3.94609 3.60025 14.1956 0 0 0 
189 14 8 H 4.64626 3.83146 15.7653 0 0 0 
190 14 8 H 3.91484 5.27358 12.599 0 0 0 
191 14 8 H 3.20847 6.41452 13.6896 0 0 0 
192 14 7 C 4.76687 7.21353 12.4629 0 0 0 
193 14 9 H 5.732 6.92158 12.0489 0 0 0 
194 14 9 H 4.93246 8.10683 13.0652 0 0 0 
195 14 10 C 3.841 7.58693 11.2907 0 0 0 
196 14 9 H 2.88072 7.97116 11.6347 0 0 0 
197 14 9 H 3.64314 6.72915 10.6479 0 0 0 
198 14 9 H 4.29159 8.35716 10.6647 0 0 0 
209 15 8 H 6.74334 2.97811 10.5589 0 0 0 
215 15 8 H 9.4579 2.66864 10.4904 0 0 0 
217 15 8 H 8.46036 4.75539 10.1201 0 0 0 
252 16 9 H 7.03268 9.31951 18.7882 0 0 0 
31 4 4 O 7.52295 9.04603 12.4976 0 0 0 
102 11 9 H 13.549 5.75478 10.146 0 0 0 
37 5 1 F 10.3246 8.57511 13.1189 0 0 0 
38 5 2 S 11.4209 7.52947 13.5496 0 0 0 
39 5 3 N 10.6336 6.17468 13.5859 0 0 0 
40 5 4 O 12.4338 7.63601 12.5309 0 0 0 
41 5 4 O 11.7879 7.97477 14.8715 0 0 0 
42 5 2 S 10.4857 5.06466 12.4826 0 0 0 
43 5 4 O 11.0697 5.35901 11.2005 0 0 0 
45 5 1 F 11.3793 3.8937 13.0505 0 0 0 
280 18 5 N 16.5086 7.96024 14.8644 0 0 0 
281 18 6 C 17.4882 8.3687 13.8485 0 0 0 
282 18 6 C 15.2834 7.71902 14.0901 0 0 0 
283 18 7 C 16.7201 9.20669 12.8222 0 0 0 
284 18 7 C 15.2855 8.70668 12.9131 0 0 0 
285 18 6 C 16.9519 6.70362 15.4905 0 0 0 
286 18 6 C 16.3247 8.92632 15.9775 0 0 0 
287 18 8 H 17.8705 7.50033 13.312 0 0 0 
288 18 8 H 18.3537 8.89517 14.2508 0 0 0 
289 18 8 H 15.2813 6.72097 13.6519 0 0 0 
290 18 8 H 14.3723 7.78747 14.6844 0 0 0 
291 18 9 H 17.1243 9.10802 11.8148 0 0 0 
293 18 9 H 14.9881 8.20695 11.9912 0 0 0 
294 18 9 H 14.5907 9.53293 13.0637 0 0 0 
295 18 8 H 17.8914 6.8255 16.0295 0 0 0 
296 18 8 H 16.2203 6.32831 16.2061 0 0 0 
297 18 8 H 17.1105 5.89942 14.772 0 0 0 
298 18 8 H 15.6235 8.49664 16.693 0 0 0 
299 18 8 H 17.2633 9.03358 16.5211 0 0 0 
33 4 2 S 6.44196 11.3611 10.4038 0 0 0 
35 4 4 O 6.14616 12.7112 10.0174 0 0 0 
248 16 9 H 8.71362 10.03 17.1459 0 0 0 
249 16 10 C 6.91835 10.2674 18.2623 0 0 0 
250 16 9 H 6.23998 10.1066 17.4244 0 0 0 
28 4 1 F 8.60615 11.1854 12.6659 0 0 0 
29 4 2 S 7.25404 10.404 12.8778 0 0 0 
30 4 3 N 6.24809 11.1371 11.9423 0 0 0 
32 4 4 O 6.94651 10.6342 14.2658 0 0 0 
78 9 2 S 8.91304 17.5417 13.0395 0 0 0 
79 9 4 O 8.71611 16.1197 13.1371 0 0 0 
80 9 4 O 8.66392 18.1449 11.7534 0 0 0 
81 9 1 F 7.80344 18.1552 13.9687 0 0 0 
82 10 1 F 3.81302 18.3258 11.8315 0 0 0 
83 10 2 S 3.03936 18.4077 13.2027 0 0 0 
84 10 3 N 1.53531 18.2563 12.7681 0 0 0 
85 10 4 O 3.57183 17.3042 13.9556 0 0 0 
86 10 4 O 3.3415 19.7301 13.6782 0 0 0 
87 10 2 S 0.53877 17.0634 12.9868 0 0 0 
88 10 4 O 1.0293 15.7835 12.5572 0 0 0 
90 10 1 F 0.471813 16.9286 14.5497 0 0 0 
145 13 5 N 3.44901 13.4422 14.5724 0 0 0 
146 13 6 C 4.79008 14.0041 14.7943 0 0 0 
147 13 6 C 2.56374 14.4358 15.1938 0 0 0 
148 13 7 C 4.77542 14.6975 16.1641 0 0 0 
149 13 7 C 3.30853 15.0418 16.3961 0 0 0 
150 13 6 C 3.19028 13.3718 13.1208 0 0 0 
151 13 6 C 3.25015 12.062 15.0886 0 0 0 
152 13 8 H 4.98043 14.7974 14.0715 0 0 0 
153 13 8 H 5.59936 13.2845 14.6705 0 0 0 
154 13 8 H 2.39754 15.2566 14.4961 0 0 0 
155 13 8 H 1.57039 14.0627 15.4431 0 0 0 
156 13 9 H 5.3952 15.5942 16.1661 0 0 0 
157 13 9 H 5.1418 14.0484 16.9594 0 0 0 
158 13 9 H 3.1627 16.1209 16.4462 0 0 0 
159 13 9 H 2.97105 14.6228 17.3441 0 0 0 
160 13 8 H 3.82693 12.6449 12.6163 0 0 0 
161 13 8 H 2.15735 13.0979 12.9059 0 0 0 
162 13 8 H 3.33983 14.3177 12.6001 0 0 0 
163 13 8 H 2.28477 11.7028 14.7321 0 0 0 
164 13 8 H 3.98894 11.4092 14.6236 0 0 0 
165 13 7 C 3.2664 11.79 16.6166 0 0 0 
166 13 9 H 2.50064 12.3862 17.1128 0 0 0 
167 13 9 H 4.22892 12.0695 17.045 0 0 0 
168 13 10 C 3.0046 10.3086 16.9697 0 0 0 
171 13 9 H 3.00573 10.1628 18.0499 0 0 0 
226 16 5 N 9.27789 12.7498 16.3321 0 0 0 
231 16 6 C 8.72922 13.7894 15.4515 0 0 0 
232 16 6 C 8.11579 12.1321 17.019 0 0 0 
234 16 8 H 9.4946 11.0088 15.0849 0 0 0 
236 16 8 H 9.79231 13.8452 18.1156 0 0 0 
241 16 8 H 8.07431 13.3874 14.6784 0 0 0 
242 16 8 H 8.16611 14.543 16.0019 0 0 0 
244 16 8 H 7.67778 12.8577 17.7045 0 0 0 
245 16 8 H 7.33436 11.941 16.2835 0 0 0 
246 16 7 C 8.27734 10.7985 17.7839 0 0 0 
247 16 9 H 8.925 10.9151 18.6528 0 0 0 
251 16 9 H 6.44325 10.9726 18.9442 0 0 0 
243 16 8 H 9.4995 14.33 14.9015 0 0 0 
238 16 9 H 10.8964 10.2528 16.8492 0 0 0 
301 18 9 H 14.888 10.3335 15.1105 0 0 0 
75 9 3 N 10.2403 18.0683 13.6751 0 0 0 
89 10 4 O 19.1853 17.4023 12.6435 -1 0 0 
46 6 1 F 15.9843 14.3619 11.8917 0 0 0 
47 6 2 S 16.3255 12.8436 12.1273 0 0 0 
48 6 3 N 14.9688 12.0972 11.9204 0 0 0 
49 6 4 O 17.3081 12.5152 11.134 0 0 0 
50 6 4 O 16.7441 12.7952 13.5038 0 0 0 
51 6 2 S 13.9781 12.2012 10.7138 0 0 0 
53 6 4 O 12.6084 12.1263 11.1409 0 0 0 
73 9 1 F 12.0306 16.4912 13.11 0 0 0 
74 9 2 S 11.3963 17.2472 14.3366 0 0 0 
76 9 4 O 10.977 16.1894 15.2143 0 0 0 
77 9 4 O 12.4841 18.0613 14.8087 0 0 0 
123 12 6 C 10.785 14.7068 10.5828 0 0 0 
133 12 8 H 11.8172 15.0532 10.6354 0 0 0 
134 12 8 H 10.1915 15.3514 11.2311 0 0 0 
135 12 8 H 10.7591 13.7257 11.057 0 0 0 
227 16 6 C 10.0822 11.8033 15.5447 0 0 0 
228 16 6 C 10.2483 13.355 17.2555 0 0 0 
229 16 7 C 11.1575 11.2476 16.4882 0 0 0 
230 16 7 C 11.2144 12.2368 17.6539 0 0 0 
233 16 8 H 10.5934 12.3127 14.7278 0 0 0 
235 16 8 H 10.831 14.1258 16.751 0 0 0 
237 16 9 H 12.1172 11.1632 15.9783 0 0 0 
239 16 9 H 12.224 12.6114 17.8227 0 0 0 
240 16 9 H 10.8928 11.7589 18.5793 0 0 0 
276 17 10 C 17.0722 17.6883 10.0479 0 0 0 
278 17 9 H 17.3338 16.8058 10.6316 0 0 0 
279 17 9 H 16.4347 18.3104 10.6761 0 0 0 
292 18 9 H 16.7647 10.266 13.075 0 0 0 
300 18 7 C 15.8158 10.3566 15.6822 0 0 0 
302 18 9 H 16.5525 10.9024 15.0927 0 0 0 
303 18 10 C 15.5637 11.1611 16.9693 0 0 0 
304 18 9 H 16.4825 11.3123 17.536 0 0 0 
305 18 9 H 14.8499 10.6584 17.622 0 0 0 
306 18 9 H 15.1588 12.1458 16.7358 0 0 0 
334 20 5 N 15.3181 16.0634 16.9625 0 0 0 
335 20 6 C 15.6326 17.3275 16.2856 0 0 0 
336 20 6 C 16.6007 15.3442 17.0236 0 0 0 
337 20 7 C 16.744 17.0298 15.2723 0 0 0 
338 20 7 C 17.4452 15.7916 15.816 0 0 0 
339 20 6 C 14.8419 16.3491 18.3247 0 0 0 
340 20 6 C 14.2335 15.2848 16.3214 0 0 0 
341 20 8 H 16.0256 18.0592 16.9915 0 0 0 
342 20 8 H 14.7595 17.794 15.8293 0 0 0 
343 20 8 H 17.1625 15.642 17.909 0 0 0 
344 20 8 H 16.4924 14.2613 17.0844 0 0 0 
345 20 9 H 17.4372 17.8655 15.176 0 0 0 
346 20 9 H 16.3443 16.8275 14.2786 0 0 0 
347 20 9 H 18.4612 16.0277 16.1322 0 0 0 
348 20 9 H 17.5253 15.0302 15.0401 0 0 0 
349 20 8 H 13.9531 16.9799 18.3371 0 0 0 
350 20 8 H 14.5746 15.4348 18.8546 0 0 0 
351 20 8 H 15.5751 16.8542 18.9535 0 0 0 
352 20 8 H 14.066 14.3753 16.8983 0 0 0 
353 20 8 H 13.3013 15.8437 16.4038 0 0 0 
354 20 7 C 14.384 14.8701 14.844 0 0 0 
355 20 9 H 15.39 14.4959 14.654 0 0 0 
356 20 9 H 14.2532 15.7319 14.1897 0 0 0 
357 20 10 C 13.3924 13.7611 14.4518 0 0 0 
358 20 9 H 12.3657 14.0123 14.7181 0 0 0 
359 20 9 H 13.6502 12.8162 14.9302 0 0 0 
360 20 9 H 13.4112 13.5951 13.3747 0 0 0 
ITEM: TIMESTEP
100
ITEM: NUMBER OF ATOMS
360
ITEM: BOX BOUNDS pp pp pp
1.2023573625143591e-01 1.9879764263748591e+01
1.2023573625143591e-01 1.9879764263748591e+01
1.2023573625143591e-01 1.9879764263748591e+01
ITEM: ATOMS id mol type element x y z ix iy iz 
5 1 4 O 9.02718 5.45369 3.32681 0 0 0 
55 7 1 F 0.739243 4.27746 8.34056 0 0 0 
56 7 2 S 1.56493 3.27412 7.46619 0 0 0 
57 7 3 N 1.85941 4.14947 6.24398 0 0 0 
58 7 4 O 2.71134 2.96765 8.28148 0 0 0 
59 7 4 O 0.608165 2.22768 7.21486 0 0 0 
60 7 2 S 3.25529 4.61494 5.67959 0 0 0 
61 7 4 O 4.1484 5.20357 6.64907 0 0 0 
62 7 4 O 3.05828 5.35895 4.47428 0 0 0 
63 7 1 F 3.95788 3.3268 5.22406 0 0 0 
72 8 1 F 1.49993 8.43641 4.40767 0 0 0 
199 15 5 N 8.09764 3.29921 8.96124 0 0 0 
200 15 6 C 7.92378 2.80139 7.59234 0 0 0 
201 15 6 C 7.08141 2.63812 9.76171 0 0 0 
202 15 7 C 6.46464 2.36087 7.451 0 0 0 
203 15 7 C 5.87623 2.51677 8.87172 0 0 0 
204 15 6 C 9.40731 2.90045 9.55171 0 0 0 
205 15 6 C 8.06856 4.81927 9.0524 0 0 0 
206 15 8 H 8.6186 1.97745 7.43098 0 0 0 
207 15 8 H 8.17939 3.53674 6.82971 0 0 0 
210 15 9 H 6.43121 1.37345 6.99101 0 0 0 
211 15 9 H 5.98353 3.05247 6.75969 0 0 0 
212 15 9 H 5.1637 1.72078 9.0871 0 0 0 
213 15 9 H 5.36043 3.47151 8.97221 0 0 0 
216 15 8 H 9.62899 1.84499 9.39506 0 0 0 
218 15 8 H 8.96621 5.2243 8.58564 0 0 0 
219 15 7 C 6.8504 5.61214 8.51214 0 0 0 
220 15 9 H 5.99331 5.44304 9.16367 0 0 0 
221 15 9 H 6.5387 5.37258 7.4957 0 0 0 
222 15 10 C 7.18744 7.09728 8.62338 0 0 0 
223 15 9 H 8.08403 7.34219 8.05431 0 0 0 
225 15 9 H 6.43294 7.77818 8.22995 0 0 0 
307 19 5 N 5.79245 8.79085 4.78829 0 0 0 
308 19 6 C 5.77096 9.83758 3.75082 0 0 0 
309 19 6 C 7.19781 8.86457 5.24607 0 0 0 
310 19 7 C 7.15115 9.82511 3.02581 0 0 0 
311 19 7 C 8.10944 9.29266 4.08863 0 0 0 
312 19 6 C 4.88028 9.03676 5.92417 0 0 0 
313 19 6 C 5.41076 7.40888 4.33223 0 0 0 
315 19 8 H 5.00224 9.64637 3.00236 0 0 0 
316 19 8 H 7.32089 9.60636 6.03492 0 0 0 
317 19 8 H 7.50019 7.905 5.66496 0 0 0 
319 19 9 H 7.14155 9.12642 2.1895 0 0 0 
321 19 9 H 8.76331 8.46643 3.81028 0 0 0 
322 19 8 H 3.83205 9.12433 5.63912 0 0 0 
323 19 8 H 4.95851 8.1669 6.57603 0 0 0 
325 19 8 H 5.56414 6.70186 5.14728 0 0 0 
326 19 8 H 4.34547 7.44415 4.10511 0 0 0 
327 19 7 C 6.11446 6.8378 3.077 0 0 0 
328 19 9 H 7.19764 6.93541 3.14679 0 0 0 
329 19 9 H 5.7873 7.45841 2.24304 0 0 0 
330 19 10 C 5.93812 5.3538 2.81895 0 0 0 
331 19 9 H 4.90843 5.17136 2.5121 0 0 0 
332 19 9 H 6.13674 4.74369 3.69986 0 0 0 
333 19 9 H 6.60289 5.03607 2.01595 0 0 0 
208 15 8 H 7.4004 1.63239 10.0345 0 0 0 
224 15 9 H 7.35301 7.41626 9.65223 0 0 0 
4 1 4 O 10.1533 6.62236 5.30065 0 0 0 
1 1 1 F 11.0827 6.6189 3.1649 0 0 0 
2 1 2 S 10.2034 5.74394 4.13394 0 0 0 
3 1 3 N 11.0422 4.45965 4.31922 0 0 0 
6 1 2 S 11.4513 3.6812 5.63887 0 0 0 
7 1 4 O 10.5767 4.00003 6.71856 0 0 0 
8 1 4 O 12.8569 3.72128 5.90646 0 0 0 
9 1 1 F 11.1324 2.22393 5.31454 0 0 0 
91 11 5 N 13.0635 8.0268 7.61681 0 0 0 
92 11 6 C 12.8496 8.00036 9.08782 0 0 0 
93 11 6 C 13.0537 6.6001 7.25614 0 0 0 
94 11 7 C 13.6309 6.73159 9.59309 0 0 0 
95 11 7 C 13.6789 5.78327 8.3856 0 0 0 
96 11 6 C 11.9172 8.71486 7.01571 0 0 0 
97 11 6 C 14.2482 8.77168 7.14425 0 0 0 
98 11 8 H 11.8146 7.80304 9.36626 0 0 0 
99 11 8 H 13.1393 8.91889 9.59781 0 0 0 
100 11 8 H 12.034 6.22841 7.15683 0 0 0 
101 11 8 H 13.4817 6.38354 6.27758 0 0 0 
103 11 9 H 14.6579 7.02132 9.81452 0 0 0 
104 11 9 H 13.1049 4.87843 8.58414 0 0 0 
105 11 9 H 14.6712 5.46111 8.07039 0 0 0 
106 11 8 H 11.7811 9.74149 7.3551 0 0 0 
107 11 8 H 11.8597 8.72923 5.92752 0 0 0 
108 11 8 H 10.9725 8.22948 7.25987 0 0 0 
109 11 8 H 14.283 8.75425 6.05513 0 0 0 
110 11 8 H 14.2381 9.83916 7.36352 0 0 0 
111 11 7 C 15.6565 8.29642 7.58988 0 0 0 
112 11 9 H 15.8088 7.22872 7.43335 0 0 0 
113 11 9 H 15.7468 8.46194 8.66325 0 0 0 
114 11 10 C 16.8334 9.05926 6.97098 0 0 0 
116 11 9 H 16.9484 8.71671 5.94281 0 0 0 
117 11 9 H 17.7743 8.80282 7.45726 0 0 0 
214 15 8 H 10.1531 3.47418 9.0018 0 0 0 
320 19 9 H 8.77302 10.0952 4.41002 0 0 0 
324 19 8 H 5.11107 9.89899 6.54945 0 0 0 
10 2 1 F 5.81972 13.6413 4.49505 0 0 0 
11 2 2 S 7.38253 13.6407 4.29933 0 0 0 
12 2 3 N 7.66794 13.4886 2.79006 0 0 0 
13 2 4 O 7.84705 14.8756 4.90304 0 0 0 
14 2 4 O 7.7933 12.4164 4.99663 0 0 0 
15 2 2 S 6.80499 13.9613 1.53405 0 0 0 
16 2 4 O 5.45563 14.3424 1.79782 0 0 0 
17 2 4 O 7.06949 13.1539 0.398462 0 0 0 
18 2 1 F 7.45993 15.349 1.07421 0 0 0 
34 4 4 O 7.16115 10.4524 9.65142 0 0 0 
64 8 1 F 1.03872 12.6749 6.42883 0 0 0 
65 8 2 S 1.15991 11.1042 6.47761 0 0 0 
66 8 3 N 0.613716 10.6454 5.11788 0 0 0 
67 8 4 O 2.55651 10.86 6.73167 0 0 0 
69 8 2 S 1.38544 9.97317 3.89849 0 0 0 
70 8 4 O 2.74115 10.413 3.73532 0 0 0 
71 8 4 O 0.597773 9.84207 2.71959 0 0 0 
120 12 6 C 8.81737 14.1992 9.11512 0 0 0 
122 12 7 C 8.65931 13.523 7.73527 0 0 0 
128 12 8 H 8.03407 14.9249 9.33301 0 0 0 
131 12 9 H 8.15111 12.5593 7.76218 0 0 0 
132 12 9 H 8.12318 14.1119 6.99138 0 0 0 
136 12 8 H 9.69983 16.6994 9.43062 0 0 0 
138 12 7 C 9.82469 16.483 7.29606 0 0 0 
139 12 9 H 8.76827 16.2181 7.25719 0 0 0 
141 12 10 C 9.89506 17.9189 6.96578 0 0 0 
143 12 9 H 9.30091 18.5575 7.6191 0 0 0 
144 12 9 H 9.54876 18.0659 5.94296 0 0 0 
314 19 8 H 5.62906 10.8292 4.18001 0 0 0 
318 19 9 H 7.45209 10.7762 2.58702 0 0 0 
36 4 1 F 4.86522 10.8652 9.85636 0 0 0 
127 12 8 H 8.62568 13.4503 9.88326 0 0 0 
68 8 4 O 0.281766 10.7315 7.5578 0 0 0 
19 3 1 F 14.9938 16.2017 1.70657 0 0 0 
20 3 2 S 14.9298 14.6828 2.23724 0 0 0 
21 3 3 N 13.7486 14.7521 3.30901 0 0 0 
22 3 4 O 14.614 13.9239 1.08043 0 0 0 
23 3 4 O 16.2111 14.4782 2.86023 0 0 0 
24 3 2 S 12.3093 15.2825 3.12405 0 0 0 
25 3 4 O 12.0819 15.9179 1.84037 0 0 0 
26 3 4 O 11.8531 15.9762 4.30517 0 0 0 
27 3 1 F 11.4494 13.9766 3.08194 0 0 0 
52 6 4 O 14.3511 13.2179 9.84765 0 0 0 
54 6 1 F 14.3968 10.8328 10.1756 0 0 0 
115 11 9 H 16.701 10.141 6.97877 0 0 0 
118 12 5 N 10.1948 14.719 9.19597 0 0 0 
119 12 6 C 11.0206 13.7696 8.43061 0 0 0 
121 12 7 C 10.0976 13.2501 7.30115 0 0 0 
124 12 6 C 10.3305 16.131 8.74732 0 0 0 
125 12 8 H 11.1988 12.9619 9.14016 0 0 0 
126 12 8 H 12.0061 14.1392 8.14793 0 0 0 
129 12 9 H 10.2465 12.1938 7.0785 0 0 0 
130 12 9 H 10.3908 13.7044 6.35492 0 0 0 
137 12 8 H 11.3878 16.3833 8.82606 0 0 0 
140 12 9 H 10.4545 15.9535 6.58146 0 0 0 
142 12 9 H 10.8968 18.3469 6.99834 0 0 0 
253 17 5 N 16.8877 15.8719 6.48896 0 0 0 
254 17 6 C 16.3046 16.9597 5.67687 0 0 0 
255 17 6 C 15.8282 14.9046 6.48336 0 0 0 
256 17 7 C 14.7677 16.9815 5.82735 0 0 0 
257 17 7 C 14.4916 15.6988 6.54886 0 0 0 
258 17 6 C 18.0394 15.2146 5.81754 0 0 0 
259 17 6 C 17.365 16.2941 7.82115 0 0 0 
260 17 8 H 16.4941 16.8262 4.612 0 0 0 
261 17 8 H 16.7672 17.9166 5.91785 0 0 0 
262 17 8 H 15.8219 14.2728 5.59541 0 0 0 
263 17 8 H 15.9183 14.2233 7.3292 0 0 0 
264 17 9 H 14.1327 16.9805 4.94168 0 0 0 
265 17 9 H 14.4477 17.829 6.43326 0 0 0 
266 17 9 H 13.6915 15.1384 6.06565 0 0 0 
267 17 9 H 14.0854 15.9485 7.52884 0 0 0 
268 17 8 H 18.8554 15.9304 5.72089 0 0 0 
269 17 8 H 18.3614 14.378 6.43719 0 0 0 
270 17 8 H 17.8298 14.8287 4.82013 0 0 0 
271 17 8 H 17.8295 15.4545 8.33799 0 0 0 
272 17 8 H 18.1882 16.9965 7.69221 0 0 0 
273 17 7 C 16.3051 16.8629 8.77343 0 0 0 
274 17 9 H 15.5889 16.0699 8.9878 0 0 0 
275 17 9 H 15.747 17.6733 8.30494 0 0 0 
277 17 9 H 17.5544 18.2577 9.96373 0 0 0 
44 5 4 O 9.10471 4.60706 12.5674 0 0 0 
169 13 9 H 4.01028 9.3805 16.2528 0 0 0 
170 13 9 H 2.46948 9.87018 17.0268 0 0 0 
172 14 5 N 5.21157 5.61282 14.4167 0 0 0 
173 14 6 C 5.44326 6.59285 15.5219 0 0 0 
174 14 6 C 6.56125 4.98647 14.3102 0 0 0 
175 14 7 C 6.79625 7.21807 15.2451 0 0 0 
176 14 7 C 7.55491 6.1699 14.4969 0 0 0 
177 14 6 C 4.27886 4.58682 14.9417 0 0 0 
178 14 6 C 4.5966 6.14386 13.2391 0 0 0 
179 14 8 H 5.5487 6.03168 16.4502 0 0 0 
180 14 8 H 4.70059 7.37133 15.6954 0 0 0 
181 14 8 H 6.66398 4.19108 15.0481 0 0 0 
182 14 8 H 6.71379 4.43722 13.3814 0 0 0 
183 14 9 H 7.31652 7.47918 16.1664 0 0 0 
184 14 9 H 6.63465 8.11899 14.6536 0 0 0 
185 14 9 H 8.46134 5.91224 15.0444 0 0 0 
186 14 9 H 7.97798 6.62304 13.6006 0 0 0 
187 14 8 H 3.33027 5.06691 15.1813 0 0 0 
188 14 8 H 4.00402 3.84473 14.1924 0 0 0 
189 14 8 H 4.52639 4.09126 15.8803 0 0 0 
190 14 8 H 4.39975 5.31227 12.5628 0 0 0 
191 14 8 H 3.6057 6.53432 13.4701 0 0 0 
192 14 7 C 5.24911 7.23253 12.373 0 0 0 
193 14 9 H 6.23177 6.94962 11.9961 0 0 0 
194 14 9 H 5.38664 8.17015 12.9111 0 0 0 
195 14 10 C 4.39162 7.54232 11.1125 0 0 0 
196 14 9 H 3.42709 7.98297 11.3639 0 0 0 
197 14 9 H 4.26353 6.63948 10.5157 0 0 0 
198 14 9 H 4.88568 8.28575 10.4873 0 0 0 
209 15 8 H 6.84794 3.19404 10.6695 0 0 0 
215 15 8 H 9.50542 3.1267 10.6132 0 0 0 
217 15 8 H 8.19841 5.18155 10.072 0 0 0 
252 16 9 H 7.1891 9.25959 18.8266 0 0 0 
31 4 4 O 7.78807 9.17046 12.5331 0 0 0 
102 11 9 H 13.3038 6.28239 10.5306 0 0 0 
37 5 1 F 10.5131 8.86531 12.9709 0 0 0 
38 5 2 S 11.4788 7.7076 13.2919 0 0 0 
39 5 3 N 10.5481 6.46272 13.422 0 0 0 
40 5 4 O 12.3986 7.72414 12.2056 0 0 0 
41 5 4 O 11.9849 8.13894 14.549 0 0 0 
42 5 2 S 10.4197 5.20869 12.4533 0 0 0 
43 5 4 O 10.8859 5.36571 11.0864 0 0 0 
45 5 1 F 11.4054 4.10561 13.1523 0 0 0 
280 18 5 N 16.365 8.00034 14.7274 0 0 0 
281 18 6 C 17.3637 8.47397 13.7438 0 0 0 
282 18 6 C 15.184 7.66102 13.9279 0 0 0 
283 18 7 C 16.6483 9.09909 12.5776 0 0 0 
284 18 7 C 15.1946 8.58102 12.6684 0 0 0 
285 18 6 C 16.7569 6.78751 15.3917 0 0 0 
286 18 6 C 16.1023 9.00137 15.8006 0 0 0 
287 18 8 H 17.9485 7.66968 13.2978 0 0 0 
288 18 8 H 18.049 9.1737 14.2217 0 0 0 
289 18 8 H 15.2338 6.64484 13.5373 0 0 0 
290 18 8 H 14.279 7.66829 14.5351 0 0 0 
291 18 9 H 17.1463 8.75047 11.6731 0 0 0 
293 18 9 H 14.8661 8.06875 11.7643 0 0 0 
294 18 9 H 14.6107 9.4971 12.755 0 0 0 
295 18 8 H 17.6524 6.92682 15.9969 0 0 0 
296 18 8 H 16.0066 6.31873 16.0281 0 0 0 
297 18 8 H 16.9842 6.01603 14.6563 0 0 0 
298 18 8 H 15.5223 8.49254 16.5703 0 0 0 
299 18 8 H 17.0815 9.24014 16.2152 0 0 0 
33 4 2 S 6.27249 11.2819 10.4181 0 0 0 
35 4 4 O 6.29358 12.698 10.2256 0 0 0 
248 16 9 H 8.68109 10.1056 16.9463 0 0 0 
249 16 10 C 6.95932 10.162 18.2604 0 0 0 
250 16 9 H 6.16489 9.94071 17.548 0 0 0 
28 4 1 F 8.22108 11.4993 12.862 0 0 0 
29 4 2 S 7.11413 10.3879 12.9091 0 0 0 
30 4 3 N 6.05204 10.9242 11.9173 0 0 0 
32 4 4 O 6.60361 10.4631 14.2578 0 0 0 
78 9 2 S 8.89307 17.3274 13.0211 0 0 0 
79 9 4 O 8.6281 15.9397 13.252 0 0 0 
80 9 4 O 8.47213 17.8506 11.7633 0 0 0 
81 9 1 F 7.94044 18.0649 14.0511 0 0 0 
82 10 1 F 3.63384 18.48 11.608 0 0 0 
83 10 2 S 3.03967 18.3705 13.0762 0 0 0 
84 10 3 N 1.50072 18.2402 12.817 0 0 0 
85 10 4 O 3.57987 17.1567 13.6482 0 0 0 
86 10 4 O 3.39867 19.6109 13.7122 0 0 0 
87 10 2 S 0.599147 16.9194 12.8487 0 0 0 
88 10 4 O 1.31418 15.7456 12.3971 0 0 0 
90 10 1 F 0.338463 16.7213 14.3462 0 0 0 
145 13 5 N 3.54189 13.1665 14.4072 0 0 0 
146 13 6 C 4.84342 13.8602 14.6192 0 0 0 
147 13 6 C 2.62648 14.048 15.1311 0 0 0 
148 13 7 C 4.86132 14.6074 15.9173 0 0 0 
149 13 7 C 3.37671 14.7417 16.2757 0 0 0 
150 13 6 C 3.26401 13.0814 12.9838 0 0 0 
151 13 6 C 3.50492 11.7208 14.9631 0 0 0 
152 13 8 H 4.9872 14.5904 13.8231 0 0 0 
153 13 8 H 5.68671 13.1846 14.4773 0 0 0 
154 13 8 H 2.35722 14.8165 14.4069 0 0 0 
155 13 8 H 1.63919 13.606 15.2637 0 0 0 
156 13 9 H 5.27006 15.6076 15.7754 0 0 0 
157 13 9 H 5.44351 14.0634 16.6608 0 0 0 
158 13 9 H 3.25089 15.8239 16.3024 0 0 0 
159 13 9 H 3.19975 14.4308 17.3051 0 0 0 
160 13 8 H 3.87582 12.3318 12.4824 0 0 0 
161 13 8 H 2.22207 12.8038 12.8259 0 0 0 
162 13 8 H 3.40723 14.0058 12.4246 0 0 0 
163 13 8 H 2.52819 11.3621 14.639 0 0 0 
164 13 8 H 4.2713 11.1479 14.4414 0 0 0 
165 13 7 C 3.78196 11.5193 16.4413 0 0 0 
166 13 9 H 3.2221 12.1868 17.096 0 0 0 
167 13 9 H 4.80646 11.7787 16.7073 0 0 0 
168 13 10 C 3.53348 10.0863 16.9326 0 0 0 
171 13 9 H 4.01666 9.96356 17.9017 0 0 0 
226 16 5 N 9.0462 12.8174 16.3131 0 0 0 
231 16 6 C 8.42618 13.8336 15.4521 0 0 0 
232 16 6 C 7.90895 12.0853 16.9427 0 0 0 
234 16 8 H 9.36944 11.1632 15.0325 0 0 0 
236 16 8 H 9.4315 13.5701 18.2384 0 0 0 
241 16 8 H 7.81441 13.3826 14.6711 0 0 0 
242 16 8 H 7.89755 14.5376 16.0945 0 0 0 
244 16 8 H 7.39554 12.73 17.6558 0 0 0 
245 16 8 H 7.075 11.8667 16.2761 0 0 0 
246 16 7 C 8.20726 10.7623 17.6757 0 0 0 
247 16 9 H 8.86941 10.926 18.5256 0 0 0 
251 16 9 H 6.50233 10.8148 19.0039 0 0 0 
243 16 8 H 9.25621 14.3832 15.0085 0 0 0 
238 16 9 H 10.8274 10.5921 16.9378 0 0 0 
301 18 9 H 14.333 10.1747 15.1601 0 0 0 
75 9 3 N 10.2443 17.904 13.4552 0 0 0 
89 10 4 O 19.0304 17.1886 12.3048 -1 0 0 
46 6 1 F 16.1946 14.3706 11.7571 0 0 0 
47 6 2 S 16.3296 12.8736 12.2385 0 0 0 
48 6 3 N 14.8981 12.2427 12.1008 0 0 0 
49 6 4 O 17.2565 12.265 11.3342 0 0 0 
50 6 4 O 16.7885 12.9622 13.6037 0 0 0 
51 6 2 S 13.99 12.2357 10.8414 0 0 0 
53 6 4 O 12.6034 12.0491 11.1944 0 0 0 
73 9 1 F 11.9698 16.1663 13.3484 0 0 0 
74 9 2 S 11.2928 17.2136 14.3605 0 0 0 
76 9 4 O 10.8289 16.3761 15.4278 0 0 0 
77 9 4 O 12.4157 18.0273 14.7227 0 0 0 
123 12 6 C 10.6198 14.7075 10.5916 0 0 0 
133 12 8 H 11.6727 14.9633 10.7077 0 0 0 
134 12 8 H 10.0422 15.4233 11.1762 0 0 0 
135 12 8 H 10.323 13.7896 11.0986 0 0 0 
227 16 6 C 9.90695 11.9726 15.526 0 0 0 
228 16 6 C 9.94106 13.5078 17.2771 0 0 0 
229 16 7 C 11.0299 11.5231 16.4086 0 0 0 
230 16 7 C 11.2152 12.6971 17.4058 0 0 0 
233 16 8 H 10.4274 12.5567 14.7672 0 0 0 
235 16 8 H 10.1379 14.5566 17.0555 0 0 0 
237 16 9 H 11.897 11.3169 15.7815 0 0 0 
239 16 9 H 12.0216 13.3555 17.0832 0 0 0 
240 16 9 H 11.4421 12.4014 18.4299 0 0 0 
276 17 10 C 16.872 17.4192 10.1007 0 0 0 
278 17 9 H 17.4577 16.6426 10.5922 0 0 0 
279 17 9 H 16.0575 17.6317 10.7929 0 0 0 
292 18 9 H 16.7496 10.1841 12.5883 0 0 0 
300 18 7 C 15.3792 10.3199 15.4286 0 0 0 
302 18 9 H 15.8628 10.7577 14.5556 0 0 0 
303 18 10 C 15.4429 11.3113 16.6134 0 0 0 
304 18 9 H 16.482 11.6186 16.73 0 0 0 
305 18 9 H 15.0887 10.8023 17.5096 0 0 0 
306 18 9 H 14.8695 12.2208 16.4355 0 0 0 
334 20 5 N 15.3207 16.3542 17.0716 0 0 0 
335 20 6 C 15.6917 17.5927 16.3177 0 0 0 
336 20 6 C 16.5696 15.5182 17.1741 0 0 0 
337 20 7 C 16.7915 17.1489 15.3187 0 0 0 
338 20 7 C 17.4836 15.9541 16.0244 0 0 0 
339 20 6 C 14.9274 16.7515 18.446 0 0 0 
340 20 6 C 14.2265 15.545 16.5072 0 0 0 
341 20 8 H 16.0397 18.3714 16.9962 0 0 0 
342 20 8 H 14.8601 18.0455 15.7783 0 0 0 
343 20 8 H 17.1215 15.6704 18.1014 0 0 0 
344 20 8 H 16.3931 14.4428 17.1663 0 0 0 
345 20 9 H 17.4284 17.9996 15.0773 0 0 0 
346 20 9 H 16.4276 16.7867 14.3574 0 0 0 
347 20 9 H 18.4762 16.2934 16.3203 0 0 0 
348 20 9 H 17.754 15.2003 15.2853 0 0 0 
349 20 8 H 14.0094 17.3365 18.4978 0 0 0 
350 20 8 H 14.7789 15.8388 19.0227 0 0 0 
351 20 8 H 15.7032 17.2936 18.9864 0 0 0 
352 20 8 H 14.2706 14.589 17.0286 0 0 0 
353 20 8 H 13.2755 16.0668 16.6121 0 0 0 
354 20 7 C 14.3672 15.1118 15.004 0 0 0 
355 20 9 H 15.3448 14.6386 14.9144 0 0 0 